formula,Tc,tc_source,dataset,pressure_gpa,lambda,wlog,debye_temp,dos_ef
Nb6ReRu,3.939,dft,jarvis_alex,,0.5591955949501803,210.2987152970163,364.5570983886719,7.1057076
Be2Rh3Ti,0.005,dft,jarvis_alex,,0.2359096105592299,260.30172066767074,471.9295654296875,3.0582037
S4Ti4,0.114,dft,jarvis_alex,,0.289775292941148,333.9208984652288,585.6307373046875,4.1520267
AlTi2W,1.224,dft,jarvis_alex,,0.4165914942536582,229.3113500529816,431.4777526855469,2.733344
Be2CoPd,0.0,dft,jarvis_alex,,0.1952933645564604,248.0229296152625,525.175048828125,2.1970465
CHgTi3,0.038,dft,jarvis_alex,,0.2711853497072278,233.7429469345468,400.6859436035156,4.624826
CdRh2Zr,0.0,dft,jarvis_alex,,0.1473177187021066,179.7151437559698,317.74517822265625,0.90841794
BeTcZr2,1.118,dft,jarvis_alex,,0.4049263142968842,244.41388322927807,386.8447570800781,2.888232
AuLi6Si,0.419,dft,jarvis_alex,,0.3540141341410354,214.0446713162905,324.7965393066406,2.7277656
CaN2Ta,13.273,dft,jarvis_alex,,0.8097636488022331,261.8551482393922,570.0360107421875,1.5968417
Si2Tc2Y,7.248,dft,jarvis_alex,,0.7625127926796887,163.43756020881577,459.5142211914063,3.3847258
AlBe4Li,0.054,dft,jarvis_alex,,0.2592102032069354,605.2060390107968,858.7593383789062,0.9372174
Al5Ni2Sc,0.001,dft,jarvis_alex,,0.2093933667074706,293.6159237450884,572.4078979492188,3.5892253
PtRu3,2.254,dft,jarvis_alex,,0.4792848627122746,216.2194643176442,452.4899597167969,4.836725
AlMoRuTc,0.468,dft,jarvis_alex,,0.3519100604238888,249.83522950331147,472.9536437988281,2.9795086
Nb6OsRh,3.336,dft,jarvis_alex,,0.5261590331014214,221.044888019361,380.7809143066406,5.2734256
GaRu2Ta,0.0,dft,jarvis_alex,,0.05628703496272,253.72720147727168,390.60205078125,0.02179137
Be2CoSi,0.584,dft,jarvis_alex,,0.3497009274661217,326.27794559170377,744.439697265625,1.1910452
AuMnTi2,7.272,dft,jarvis_alex,,0.8681293607288055,124.69132532302672,339.0043029785156,3.4511058
Pt2WZn,0.716,dft,jarvis_alex,,0.4024891814012594,162.09905763610394,319.4692687988281,1.2729266
Al2AuTc,0.0,dft,jarvis_alex,,0.1690537686186174,255.1183729644492,361.8211975097656,1.0121304
Ti2WZn,3.331,dft,jarvis_alex,,0.5384463564733142,202.4120442662613,366.7216491699219,4.28221
MnNbTaTc,0.0,dft,jarvis_alex,,0.2016880940755906,273.4803471287951,355.2123107910156,1.240823
Mg2PdRh,0.0,dft,jarvis_alex,,0.1279931472506387,191.96783855051007,356.9973449707031,1.4880247
Ru4ScY,12.105,dft,jarvis_alex,,1.0360088236051257,154.36716882120146,293.9778747558594,6.50412
Ga2TiV,0.197,dft,jarvis_alex,,0.3151170988592773,254.3771789543504,460.6231994628906,2.9442382
Mn2TiW,0.0,dft,jarvis_alex,,0.1851007995210559,312.48377855257456,466.9671936035156,0.97553843
Al2Sr2,0.048,dft,jarvis_alex,,0.2883094310486894,149.2246330656502,297.6625671386719,3.4633229
NSc2Sn,0.001,dft,jarvis_alex,,0.210875718654392,291.0946022263065,415.6550598144531,0.9125136
CuMgPd2,0.0,dft,jarvis_alex,,0.1120837061254739,146.0631333682684,315.2939147949219,1.179239
Pd2TiZn,0.0,dft,jarvis_alex,,0.2050264799857675,205.4087051630404,364.26861572265625,2.1367998
CCl2Zr2,0.002,dft,jarvis_alex,,0.2244839781238251,280.542355977443,252.06285095214844,0.9685883
Be4CuMg,0.336,dft,jarvis_alex,,0.3085268653230429,527.0293388025264,736.74853515625,0.7452456
AsCaCu,0.002,dft,jarvis_alex,,0.227356967907875,181.79520683036185,352.8854675292969,0.68405247
Ga2LiTc,0.048,dft,jarvis_alex,,0.282645426653429,184.8227191215853,377.0668029785156,0.9922078
Sc6Zr2,3.51,dft,jarvis_alex,,0.5697721306556301,175.89342546239544,335.6407775878906,15.762294
NiOs2Ta,1.115,dft,jarvis_alex,,0.4221127874212486,195.10285755863427,357.8012390136719,3.230261
NbW3,0.0,dft,jarvis_alex,,0.2096662705557558,228.6382318023116,362.2690734863281,1.7108268
NbTa,13.017,dft,jarvis_alex,,1.087200025070298,154.25242778089174,249.1379852294922,3.6312149
SSeY2,0.654,dft,jarvis_alex,,0.3869518890814329,186.3791738226401,315.792236328125,1.2910893
AlCu2Hf,0.548,dft,jarvis_alex,,0.4122644285521396,108.3174814488714,318.20556640625,1.6960856
Co2Ge2Sc2,0.148,dft,jarvis_alex,,0.307257524320534,241.48917812427632,437.3942565917969,3.2404153
NiReTi2,0.025,dft,jarvis_alex,,0.2606032982214329,257.6119397560131,374.65185546875,4.6622167
AlGa2Ni3,0.449,dft,jarvis_alex,,0.3690420973385805,172.5326694378142,382.9518737792969,2.9795208
AlCoHfRu,0.0,dft,jarvis_alex,,0.062327412501422,257.25000609868147,420.43756103515625,0.6494519
MgNY3,0.468,dft,jarvis_alex,,0.3721127237284529,170.49016889024043,424.4528198242188,4.568612
CHf2Hg,0.311,dft,jarvis_alex,,0.3576554519541704,147.86860235958167,334.6000061035156,2.048246
AlZn2,0.386,dft,jarvis_alex,,0.3548424103531704,193.95477468253063,330.1571350097656,0.576405
AlBeNiTi,2.537,dft,jarvis_alex,,0.5342807104011867,158.15146956464883,559.1720581054688,1.9292537
BHf2S,0.956,dft,jarvis_alex,,0.393626554480379,245.703259719469,410.8275451660156,1.9722102
HfSbTc2,0.414,dft,jarvis_alex,,0.3583523401371157,194.4450874760405,365.2046203613281,3.328884
CoScTcZr,0.001,dft,jarvis_alex,,0.2184118393470087,235.5766601280673,394.8594055175781,4.5397234
MoNi4Pd,0.016,dft,jarvis_alex,,0.2550537453977926,217.7074533650432,406.3287658691406,3.7963114
FeTa2V,0.04,dft,jarvis_alex,,0.27168649812159,244.4816163859749,336.9950866699219,3.4037552
Tc4Zr2,18.785,dft,jarvis_alex,,1.5339848573920318,143.22834414154937,326.6128234863281,8.856013
AlCHfSc2,0.0,dft,jarvis_alex,,0.1954814137349501,257.68832295296306,506.9971008300781,1.932948
Os2TaTi,5.656,dft,jarvis_alex,,0.6450581413822603,194.6160222478144,356.5101623535156,2.9338698
OsPtRh2,1.614,dft,jarvis_alex,,0.4632393391061424,179.5863017073447,373.9763488769531,3.432119
PS3Y4,2.262,dft,jarvis_alex,,0.4967613237675379,186.73419391483824,391.6834411621094,1.6031495
CrGaV2,2.315,dft,jarvis_alex,,0.4657202062445177,251.5023602399925,486.9115905761719,3.3745615
NiRh2Zr,0.069,dft,jarvis_alex,,0.2871760864489767,221.2605624727945,404.1517028808594,5.62472
Cr4Mo2V4,0.443,dft,jarvis_alex,,0.3428778954360194,286.26188040402207,394.3224487304688,6.49781
Al2Sc2,0.004,dft,jarvis_alex,,0.2346124855919036,210.46788308982212,492.2008361816406,3.0800025
CrRhTa2,4.948,dft,jarvis_alex,,0.6653254581206078,155.9670306178569,332.9195251464844,2.910759
NbZn,1.344,dft,jarvis_alex,,0.4452301520916646,179.76865637107508,385.7859802246094,0.9090599
MgRh2Ta,1.154,dft,jarvis_alex,,0.447758282221452,150.24113589032544,346.4651794433594,4.311058
AlNiPdSc,0.412,dft,jarvis_alex,,0.3734476492776372,146.4568391409791,374.8737182617188,2.984124
Al3AuFe2,0.0,dft,jarvis_alex,,0.1960372983476039,249.18482433922972,458.4347534179688,5.0339384
H2RhZr2,7.085,dft,jarvis_alex,,0.7517030129597289,164.40446487874064,319.35357666015625,5.388297
Cu6GeSn,0.033,dft,jarvis_alex,,0.2785612970811634,150.61987037451686,292.4908752441406,2.5245342
MoRe2Ti,0.289,dft,jarvis_alex,,0.3296469054150541,254.3405368135315,396.0198059082031,1.9804236
Al5PdSc,0.055,dft,jarvis_alex,,0.2767527635680423,270.13092698811954,404.980712890625,2.8512774
CdH3K,35.919,dft,jarvis_alex,,0.8163920127304958,700.7801264664276,310.8137512207031,0.16284025
SiTaTc2,0.02,dft,jarvis_alex,,0.2555953585408418,266.15526319923333,411.0082092285156,2.5841494
B4C4Y2,2.309,dft,jarvis_alex,,0.4146213476223596,442.90594555520863,796.0033569335938,1.8244376
SnTi2Zn,0.077,dft,jarvis_alex,,0.29007523051095,223.93297322545865,377.759765625,3.067051
HMoRhRu2,2.513,dft,jarvis_alex,,0.4816767906281495,235.7559870331215,461.3669738769531,2.5157518
Si2W4,3.936,dft,jarvis_alex,,0.576792543256263,189.04011273318025,406.0718383789063,3.8384888
Al3Rh2,0.318,dft,jarvis_alex,,0.3445235261318622,198.53701344743985,517.4964599609375,2.5923486
BeGeRu2,1.819,dft,jarvis_alex,,0.4599354626003652,208.99993327636508,453.0489807128906,3.117479
Fe2Ti3Zn,0.516,dft,jarvis_alex,,0.3591390972087407,238.5133361959891,477.9819641113281,3.847948
InNb2Ta,2.272,dft,jarvis_alex,,0.5267022852279138,149.49957397753326,256.4598693847656,2.1420097
NbRe,0.012,dft,jarvis_alex,,0.2483185098916401,253.3615375975827,347.0218200683594,0.9394505
Os3Ta,8.242,dft,jarvis_alex,,0.7992623828431566,169.33127086187693,388.5191955566406,4.54806
Pt3Rh2,1.044,dft,jarvis_alex,,0.4236579208529785,178.99450277538904,318.02984619140625,9.194882
SiV6W,4.92,dft,jarvis_alex,,0.5484939134911974,280.5857277108927,474.6141357421875,6.471559
PtSi3Y,5.666,dft,jarvis_alex,,0.6856384178001073,164.67513600469428,382.2073669433594,1.6219476
Cu2Sc3Zr,3.379,dft,jarvis_alex,,0.5824323725609936,157.44723826642254,355.3083190917969,6.148499
Ca2P,0.0,dft,jarvis_alex,,0.1617305138360029,234.25427038821985,416.1572570800781,1.3935959
ReTc2Ti,8.659,dft,jarvis_alex,,0.7362781200992622,212.7777031639478,427.4444274902344,2.8686025
Cr2Os6,3.645,dft,jarvis_alex,,0.5154002108967592,260.9047537217245,434.1761169433594,7.748802
Ag4Zn4Zr4,2.187,dft,jarvis_alex,,0.5108366872262213,161.95858616485506,292.4952697753906,7.106979
InLa2Y,5.931,dft,jarvis_alex,,0.8694010870159073,102.8861908268792,175.92605590820312,4.63591
Al3BaOs,0.649,dft,jarvis_alex,,0.3807030342009745,204.39209896143365,276.8958435058594,1.771435
BLaPtRh2,0.0,dft,jarvis_alex,,0.1762048993887748,129.60534350277024,293.0119934082031,0.9108359
AlCo2Si2,0.0,dft,jarvis_alex,,0.156216569832919,350.57853931571606,600.206298828125,2.284785
B4Cr4,0.194,dft,jarvis_alex,,0.2952747125879359,466.9297425465904,964.1030883789062,4.3349495
Al4Ti2Zr,0.685,dft,jarvis_alex,,0.3742208061743339,240.778003935954,528.004150390625,5.6126246
GaMgSc2,0.088,dft,jarvis_alex,,0.2986216120108559,189.46756402786363,375.5232849121094,3.2049334
H6K2Rh2,0.003,dft,jarvis_alex,,0.2200149333683695,605.2524867053426,342.7614440917969,1.8537714
HRh3Ti,0.012,dft,jarvis_alex,,0.2471053076040192,268.2477662640809,453.9996032714844,2.16734
O2SnY2,0.281,dft,jarvis_alex,,0.3585227222790667,131.27188099497462,349.5630187988281,1.3590419
Re3Tc,8.493,dft,jarvis_alex,,0.7557947432530051,196.86118124660084,421.3345642089844,3.6391993
Au2MgZn,0.555,dft,jarvis_alex,,0.4310637008378061,86.81475911070837,167.05519104003906,1.0383018
AlCo2W,0.006,dft,jarvis_alex,,0.2392621674362707,229.33558103925407,531.73388671875,1.8548007
Be2CuNi,0.078,dft,jarvis_alex,,0.2805592779013942,323.14031854416123,530.9530639648438,1.7169176
GaMgPtRh,0.001,dft,jarvis_alex,,0.2195467329777316,145.26722865531156,332.9183044433594,1.6275238
LiRuY2,0.093,dft,jarvis_alex,,0.3047015542052725,163.9464592485829,271.4307861328125,3.005016
NiSi2,0.077,dft,jarvis_alex,,0.2872129827277937,245.97847456421164,357.8437194824219,0.71265835
HfNi3,0.0,dft,jarvis_alex,,0.082900870847742,181.5511552400044,393.8190612792969,0.521808
Mo2Os6,2.541,dft,jarvis_alex,,0.4826119950951459,236.9693097351237,440.5050964355469,6.9503236
OsSiV6,4.583,dft,jarvis_alex,,0.5272546613766669,301.2694052014688,471.53753662109375,6.3284144
HPV,0.006,dft,jarvis_alex,,0.2296315543451164,441.5053428565964,575.5389404296875,1.3714447
MoReSi4,10.376,dft,jarvis_alex,,1.0156209957447389,135.10353492003472,612.0931396484375,1.8370317
PdTi2V,3.188,dft,jarvis_alex,,0.5055046300163476,245.88779857139207,379.0113220214844,3.6743164
TaW,0.151,dft,jarvis_alex,,0.315564554200138,192.27032762209515,356.0766906738281,1.4746597
AlHfRu2,0.012,dft,jarvis_alex,,0.2499674790788368,219.7926592272925,387.19232177734375,1.8297185
AlNb6Sb,16.362,dft,jarvis_alex,,1.3082812186428423,149.90715913993833,297.3614807128906,13.263345
Sc2Zn3Zr,0.179,dft,jarvis_alex,,0.3260537598983346,172.39897928446598,347.870361328125,6.161925
GeNi3Zn2,0.923,dft,jarvis_alex,,0.4468182932773061,121.11666075851944,322.4115295410156,4.1059823
GaLiNbOs,1.848,dft,jarvis_alex,,0.4617216540797179,208.6303680345856,337.1516418457031,3.748058
GaLiNiZr,0.0,dft,jarvis_alex,,0.0292105322398122,251.25134631786216,306.6223449707031,-0.064173
Rh2ZnZr,0.0,dft,jarvis_alex,,0.1282269323377241,194.65845301937003,338.695556640625,0.4084945
AlNY3,0.0,dft,jarvis_alex,,0.2081171889440427,230.71414499307727,425.5638122558594,2.3912137
Al5RuSc,0.157,dft,jarvis_alex,,0.3064789575993312,261.6318881350409,483.3316955566406,2.7144678
LiRuSc2,0.121,dft,jarvis_alex,,0.3050764909379295,210.1939607925377,332.9780578613281,3.377209
HfTaTc2,0.01,dft,jarvis_alex,,0.2468834399836096,233.6674245568768,346.9473571777344,3.0331674
MnMoReTi,0.024,dft,jarvis_alex,,0.2575107060460564,295.0669330508775,415.3860473632813,2.9273477
ReW3,6.114,dft,jarvis_alex,,0.6702395406201721,190.1523450573636,375.0749206542969,2.4133203
B2Co2Sc,0.025,dft,jarvis_alex,,0.2516189453532877,425.5520742223176,713.1728515625,2.540564
Co2Cr2,2.587,dft,jarvis_alex,,0.4552758463979239,312.1147241338244,598.4638671875,3.8948064
Os2Pt2,2.121,dft,jarvis_alex,,0.4879007433448273,188.9424638188833,343.272216796875,4.443269
Al4YZr,0.0,dft,jarvis_alex,,0.1760195430606538,248.9273176705132,527.291748046875,2.5804596
CoHNi2Sb,0.006,dft,jarvis_alex,,0.2385866527412234,234.1100818238325,384.3688659667969,2.8548527
Al2SiZr,1.852,dft,jarvis_alex,,0.4541180914919746,225.5544435411599,586.0162963867188,2.3081403
H4RhTi2,0.2,dft,jarvis_alex,,0.3064542182750484,333.887526170907,552.8212280273438,2.2087586
LiNi4Y,0.0,dft,jarvis_alex,,0.1783819751209933,237.394155605081,372.1778259277344,5.8953786
H6La2PtRu,7.665,dft,jarvis_alex,,1.2303892479541063,75.83078058192898,341.6352844238281,2.7327943
AlNb6Ru,4.095,dft,jarvis_alex,,0.5549666277038283,224.339253948861,354.6391296386719,4.942372
CN3Ti4,5.497,dft,jarvis_alex,,0.4874440909901377,490.7427067089901,836.5117797851562,3.3470948
AlCuPtTi,1.942,dft,jarvis_alex,,0.5989470256803902,82.53924103627206,302.109130859375,1.9237288
Ru2Si2Y2,0.659,dft,jarvis_alex,,0.3871837292720098,187.0665093138064,359.7289123535156,4.3241916
BeMgPd2,0.0,dft,jarvis_alex,,0.2098602908558099,218.04220259498013,371.4654235839844,0.9715909
GaLa3O,1.053,dft,jarvis_alex,,0.4471674943954659,137.7197864821887,281.3393859863281,2.7630382
CNi2ScTc,0.018,dft,jarvis_alex,,0.2587724481119528,204.93124013197104,490.2341003417969,1.1065472
LuPtRh2,0.389,dft,jarvis_alex,,0.3609959140468315,173.95250544642545,295.2954406738281,3.032348
LiPdZn2,0.577,dft,jarvis_alex,,0.4066979071076835,122.89540797319098,234.54258728027344,1.3714006
Cu4PdTi,0.051,dft,jarvis_alex,,0.2816323619311537,202.21891546521465,335.4533386230469,4.78181
GaRh3,0.276,dft,jarvis_alex,,0.334665364212145,215.2098860335013,388.2213134765625,1.456508
MgRh2Y,0.0,dft,jarvis_alex,,0.1425558006756977,172.04000065281565,327.32049560546875,1.0283567
Ca2Mg2Sn2,0.0,dft,jarvis_alex,,0.1558221264811798,160.69622971630284,291.7748718261719,0.53637344
Rh2V6,2.866,dft,jarvis_alex,,0.4700965020648907,299.1857581866407,515.9068603515625,5.2687955
FeMnTaTi,0.0,dft,jarvis_alex,,0.1619944402882192,300.6160570643472,403.1805725097656,2.0192585
CoHf2Mn,0.055,dft,jarvis_alex,,0.2813661897986941,222.097322263182,327.8450012207031,2.6793497
Ni2Sb2V2,1.31,dft,jarvis_alex,,0.4294319571254317,209.45183128071216,346.4078674316406,6.538363
Pd6ScTi,0.0,dft,jarvis_alex,,0.1380654470057062,190.14381977126743,362.14007568359375,6.1027527
Re2Tc2,8.768,dft,jarvis_alex,,0.7411757491883351,212.5243856121155,443.5741271972656,2.9858537
AlBe4Tc,10.748,dft,jarvis_alex,,0.6725754655644304,328.85784757173764,857.808349609375,4.7326927
Re6Tc2,9.31,dft,jarvis_alex,,0.8082813096716791,186.4462548344773,419.1672668457031,5.765539
LaNiP,0.523,dft,jarvis_alex,,0.3734534164108697,185.99129018178388,333.2069702148437,1.1380033
Mg3ScY2,0.165,dft,jarvis_alex,,0.3259963723960913,159.50312318188733,283.0377502441406,9.073391
RuSc2Sn,0.108,dft,jarvis_alex,,0.3136810720503545,145.2833277476864,317.1529235839844,1.4499019
NiSc2Zn,0.584,dft,jarvis_alex,,0.3877036177733415,164.51268762700778,358.8396911621094,3.0801833
HgNZr3,1.63,dft,jarvis_alex,,0.4743499752473695,162.8753378681442,395.4415588378906,4.45789
LiPtSiZn,3.62,dft,jarvis_alex,,0.6909556264741201,102.99142600916798,306.0947265625,1.2667352
AgMoTi2,2.143,dft,jarvis_alex,,0.4745393601969687,214.37709109291143,385.16064453125,4.3939123
BePd2V,0.821,dft,jarvis_alex,,0.3898128290112566,223.85971192980384,416.0184326171875,2.330514
TiV2W,15.446,dft,jarvis_alex,,0.9763451605704287,217.1070448939451,354.19512939453125,7.9491825
Al2AuZr,0.128,dft,jarvis_alex,,0.3131462792390553,174.73251289005813,330.4127197265625,1.9192873
Hf2RhTc,0.0,dft,jarvis_alex,,0.1917518926863954,206.3304619036444,336.3011779785156,1.6756608
HfPt2Rh,0.0,dft,jarvis_alex,,0.1914643356121762,183.6994372101096,319.0420837402344,3.0456629
AlNSc2Ti,0.237,dft,jarvis_alex,,0.3219836247426779,253.40812690678752,536.5228881835938,2.7759752
Pb2YZn,1.394,dft,jarvis_alex,,0.5214698291780303,95.28747826621536,182.12571716308597,1.998796
HMgPd3,1.11,dft,jarvis_alex,,0.4011195896516506,255.5965181503398,327.4729919433594,4.43956
B4Re2,0.005,dft,jarvis_alex,,0.2296511305908429,414.7033203824526,699.3582763671875,1.6912646
C2Sb2Ti4,1.322,dft,jarvis_alex,,0.4045431268818732,290.29025869686075,526.93310546875,3.695885
In2TiZn,0.0,dft,jarvis_alex,,0.1820315687079633,200.90145486885365,329.9991149902344,1.3881196
MoNb,0.225,dft,jarvis_alex,,0.320667394103269,249.808718751506,354.9785461425781,0.88335264
InRu2V,0.595,dft,jarvis_alex,,0.3739570498810122,210.0951330884345,368.5438232421875,1.456889
BeGa2Ti,0.0,dft,jarvis_alex,,0.1792434211469574,336.09125971156226,475.82269287109375,1.4839907
NbTc2V,0.155,dft,jarvis_alex,,0.3031479800322294,287.54961617119693,416.6844482421875,1.0283428
PdRh2Ti,0.216,dft,jarvis_alex,,0.3221972689737781,229.7905276882112,435.9181823730469,3.6769686
CoGeV,0.0,dft,jarvis_alex,,0.0282280742175419,312.88798311076084,412.4025268554688,-0.0520896
CaLi5,0.069,dft,jarvis_alex,,0.2869786241979535,222.2312775324675,342.7620544433594,3.8506947
N2Os,0.229,dft,jarvis_alex,,0.3297907996158107,200.28652323072532,416.0178833007813,0.8070523
BePdPt,0.005,dft,jarvis_alex,,0.2371179183566731,203.6826105586861,345.5909729003906,1.2057368
BeNi,0.0,dft,jarvis_alex,,0.1601515866223985,383.93565098753913,552.233642578125,1.134048
Ca2InLi,0.08,dft,jarvis_alex,,0.306112026399428,135.21760177774152,253.1332550048828,2.5467012
AlLi2Zn,0.055,dft,jarvis_alex,,0.275258512158589,288.7736509050704,425.3808288574219,1.097947
Os5W,0.927,dft,jarvis_alex,,0.3978605500359853,224.4730958800155,439.9448547363281,4.8807917
NbNiOs2,1.584,dft,jarvis_alex,,0.4497076695379843,202.2984610879361,402.9852294921875,3.35201
CdNZr3,0.569,dft,jarvis_alex,,0.3768028295257543,191.11812485045044,425.6524963378906,3.5579016
OZr4,2.306,dft,jarvis_alex,,0.5046157344999578,178.7781274266295,401.1507263183594,3.1321065
CuLiZn2,0.013,dft,jarvis_alex,,0.2523357523715123,220.45796066525685,307.4486389160156,1.0708964
PtRuSc2,0.0,dft,jarvis_alex,,0.0854190000454494,231.0676886766098,326.1112365722656,0.69936174
AlHfLiNi,0.0,dft,jarvis_alex,,0.0343049173392476,263.1291492867485,337.44097900390625,-0.0706143
Fe6Re2,0.146,dft,jarvis_alex,,0.2968893711787868,332.9185938132058,544.6224975585938,8.845464
NbOsReTa,5.617,dft,jarvis_alex,,0.6523889213999229,187.5502775932057,355.6000366210937,2.5821419
AlMgPt2,0.0,dft,jarvis_alex,,0.208521663164736,163.07721489116702,312.7015380859375,2.6002517
Nb2TiW,12.207,dft,jarvis_alex,,0.9343444217295068,184.8426848895832,330.6847229003906,6.71717
MoNb3Tc2,0.216,dft,jarvis_alex,,0.3186281135748295,253.52435338967572,408.8871765136719,3.9554143
B2CLuNi2,6.4,dft,jarvis_alex,,0.6032132603138401,266.18606383731185,478.45257568359375,2.584937
MoNbTcW,0.23,dft,jarvis_alex,,0.3207729064743769,254.94266836949248,386.5551452636719,1.1808169
BaCaHg2,0.695,dft,jarvis_alex,,0.4716972431061753,71.30163266197393,104.47210693359376,2.293349
NSc2TlY,0.0,dft,jarvis_alex,,0.1733729597523061,291.7863745359758,355.4469909667969,2.9098442
Rh3Ti5,1.889,dft,jarvis_alex,,0.465304427867039,206.06562537319496,433.7212829589844,5.9318166
ReRuScW,0.0,dft,jarvis_alex,,0.1531041233386361,238.917508976618,363.7946472167969,1.3257066
B2Cr2Sc,0.063,dft,jarvis_alex,,0.2749654512054925,330.36101035343233,797.3960571289062,1.3469414
Be2PtRu,0.838,dft,jarvis_alex,,0.3827316514561102,255.16527369125623,439.8372497558594,2.650106