formula,Tc,tc_source,dataset,pressure_gpa,lambda,wlog,debye_temp,dos_ef
Al2Hf2Ni4,0.027,dft,jarvis_alex,,0.2658873376250113,212.06685583113523,388.7720336914063,5.995758
Al2GeSc,2.283,dft,jarvis_alex,,0.4853306524473955,207.38656974538577,526.671875,1.7633542
GaNScY2,0.066,dft,jarvis_alex,,0.2924313776550818,174.9850154776012,425.8067626953125,2.5368311
Al4ScTi2,0.818,dft,jarvis_alex,,0.3800168534397278,260.8231122911496,546.0429077148438,6.471873
Ca2Si2Tc2,7.952,dft,jarvis_alex,,0.9076933018877196,125.6866254262705,367.7114868164063,5.827885
PPtRu,0.006,dft,jarvis_alex,,0.2389848725256199,222.41488065326664,338.36639404296875,0.89426136
GaTaV2,0.703,dft,jarvis_alex,,0.3764110527440704,238.0668475823448,381.057373046875,3.3063958
GeRu2Si,0.0,dft,jarvis_alex,,0.1713140911258263,223.1889736072316,461.8909606933594,0.6110934
GaV2W,0.591,dft,jarvis_alex,,0.366502971130442,238.1914209221713,405.3764953613281,4.590788
BaNiSi2,0.572,dft,jarvis_alex,,0.3763642292241765,193.57312826128933,305.3529357910156,1.866259
HfNaS2,1.936,dft,jarvis_alex,,0.5140389857477535,139.38340690771685,323.9424133300781,1.6899796
AlPd,0.362,dft,jarvis_alex,,0.357454487264399,172.8136949299035,363.8491821289063,1.0756619
Pt2RhRu,0.833,dft,jarvis_alex,,0.3942843264183562,212.49921218079817,352.4726257324219,5.7024345
H2Nb,2.688,dft,jarvis_alex,,0.4849520279899463,244.3949657109206,518.7796020507812,0.9410892
AgAl2Zn,0.102,dft,jarvis_alex,,0.299783028436884,211.0158255438048,344.8941955566406,2.8383315
NbRu2Sc,0.0,dft,jarvis_alex,,0.1380818899074927,265.2371829268815,418.3304748535156,0.29468343
ReTa2W,0.0,dft,jarvis_alex,,0.211513499585083,208.52666523518224,353.9715881347656,1.8179554
Cu2InTi,0.011,dft,jarvis_alex,,0.2547261513953811,159.28563619726137,320.9652709960937,2.8202186
Mo2NbW,0.018,dft,jarvis_alex,,0.2542618872123263,258.8529492003292,377.5478820800781,2.658628
Co2Ge2Hf2,0.012,dft,jarvis_alex,,0.251409465939875,211.42558668631744,372.7952575683594,5.913143
LiPdRuSi,0.0,dft,jarvis_alex,,0.1464904420491581,282.8148870336701,435.6971130371094,2.1337743
CCdSc2Y,1.336,dft,jarvis_alex,,0.4942633480880915,112.23752072438648,419.52972412109375,6.0132527
Be2PdRu,3.421,dft,jarvis_alex,,0.5851730414668319,156.3821749597667,489.0005798339844,3.0992115
Ag2AlSc,0.074,dft,jarvis_alex,,0.3031216797032982,137.46560198239263,250.22727966308597,1.5975063
CGeV2,0.656,dft,jarvis_alex,,0.3527791745239779,343.6580994958356,576.27294921875,2.4391103
AgFeSc2,0.004,dft,jarvis_alex,,0.2368617750318795,191.5949345953354,343.5662536621094,2.3722472
CrMo2Tc,12.183,dft,jarvis_alex,,0.8202750924284413,237.0163604771853,455.5462951660156,2.9423766
Al3CoRu2,0.006,dft,jarvis_alex,,0.2374102287974785,250.81456224769963,536.1993408203125,5.195516
Pt2RhSc,0.069,dft,jarvis_alex,,0.2911283196644956,192.50069641112137,311.1980285644531,4.4123316
Os2Ti4,0.873,dft,jarvis_alex,,0.3777610448366519,289.0729926526845,434.9351806640625,8.010093
Tc2Ti3Zn,1.703,dft,jarvis_alex,,0.4416519524656774,236.88069059921472,391.5757446289063,5.4486275
Os2SiW,7.52,dft,jarvis_alex,,0.7964308333817988,154.68995238169282,397.5423889160156,2.8528411
V3W,7.7,dft,jarvis_alex,,0.6751788289239564,233.89979603888008,330.13043212890625,5.7830815
GeMgRhRu,0.0,dft,jarvis_alex,,0.1432027641855334,225.93142402990892,415.7878112792969,1.7791706
NiRhSc2,0.0,dft,jarvis_alex,,0.2039986200299108,188.25851172121216,359.2508239746094,1.9460357
GeRuTa,6.335,dft,jarvis_alex,,0.7321697448641609,157.42364153407246,350.869384765625,1.3532226
Ca2Si4,1.982,dft,jarvis_alex,,0.4671091210253171,212.20850355706483,421.9087829589844,2.0370905
NaNi2S2,0.504,dft,jarvis_alex,,0.3607864693031345,225.84357235214384,295.7543334960937,4.266909
CHgNiY2,2.405,dft,jarvis_alex,,0.5091001988630371,179.61677292618597,300.5912780761719,3.8225405
TcV2W,0.024,dft,jarvis_alex,,0.2577333905708543,294.57915284272747,431.35455322265625,1.7369448
N2Rh2V4,2.226,dft,jarvis_alex,,0.4465897825664387,293.08237576817584,605.3757934570312,5.461255
Mn2NbTa,0.0,dft,jarvis_alex,,0.1994690952795215,290.1703739001459,377.2431335449219,1.3984258
MoTcV2,0.18,dft,jarvis_alex,,0.305998079214495,304.54449787585327,463.1255493164063,2.20178
HfLiRh2,0.0,dft,jarvis_alex,,0.1671281459283725,188.1888103410527,287.863525390625,1.4968541
Li2Mg,0.534,dft,jarvis_alex,,0.3620173272659466,233.4795992180624,369.6165161132813,1.8707633
Be4OsTa,0.779,dft,jarvis_alex,,0.3639956359393517,328.0162735536803,570.5201416015625,1.2567302
AlNi3Zn2,0.011,dft,jarvis_alex,,0.2555522137464131,153.99452942689672,405.8622131347656,4.1366396
BeGeRh2,0.483,dft,jarvis_alex,,0.3700581221147478,182.45324840390973,456.9635925292969,1.2553451
AlHf2In,0.126,dft,jarvis_alex,,0.3152954042203559,161.54711461922824,298.7732238769531,3.038193
AlLiRhZr,1.677,dft,jarvis_alex,,0.452281677779525,208.0474416691333,363.1964416503906,4.468082
Al2HfTi3,1.919,dft,jarvis_alex,,0.4623000597381438,215.53118803624588,419.21331787109375,5.9743342
Al2ScZr,0.863,dft,jarvis_alex,,0.3977016491522739,209.2291713215301,467.3717346191406,3.2444923
CdOScY2,0.178,dft,jarvis_alex,,0.3223690579937629,189.031769315232,361.0227355957031,2.5559847
MoRh7,1.018,dft,jarvis_alex,,0.3953156312057974,255.85291871401373,478.36669921875,7.8252745
HfLiNi4,0.001,dft,jarvis_alex,,0.2126263716029237,211.2228582045921,380.6457214355469,7.382049
B2H2Hf2,0.0,dft,jarvis_alex,,0.1815173415538056,434.5388022312205,468.7594909667969,0.7429555
CoNi2W,0.301,dft,jarvis_alex,,0.3319336312425568,250.7509695593592,441.5524291992188,3.3106074
OsRuScV,0.0,dft,jarvis_alex,,0.153296684499662,275.4119032790073,416.1629943847656,1.747002
Al2Co2Si,0.001,dft,jarvis_alex,,0.2091884184221794,316.6173391352176,590.8033447265625,3.1892195
Nb2Si2Zr2,0.174,dft,jarvis_alex,,0.310524044142681,256.284321388392,464.6637268066406,2.4084034
CuRh3,0.079,dft,jarvis_alex,,0.2888470431934969,239.26234259469203,381.2619934082031,6.2039614
LiNbRu2,5.302,dft,jarvis_alex,,0.6531697588786515,176.02388566508736,367.9894714355469,3.9040656
AgCNiY2,0.379,dft,jarvis_alex,,0.3509633590877424,205.99116836436207,334.2112121582031,3.5035324
Ge2Mo,0.004,dft,jarvis_alex,,0.2323844845187036,263.65162352513204,515.6971435546875,0.9183798
Ru2ScTa,0.0,dft,jarvis_alex,,0.1601439297302381,240.2678433143641,377.3038024902344,1.5070059
Re2TaV,0.049,dft,jarvis_alex,,0.2748186419966293,258.8039116893956,362.4061584472656,1.809502
H2RhSc2,0.0,dft,jarvis_alex,,0.1906694108918833,327.57985838967875,441.5015869140625,1.2193209
B2W4,8.238,dft,jarvis_alex,,0.7473747372516724,194.04850344667835,452.5620727539063,3.2311404
CuGeLiPd,1.229,dft,jarvis_alex,,0.4608556423090199,139.7411301281798,289.6766052246094,2.6334794
AuSnTi2,0.262,dft,jarvis_alex,,0.3393364394053077,183.5528440938314,268.3427429199219,4.863995
CaLiMgZn,1.383,dft,jarvis_alex,,0.4828366845864856,128.11974563807527,311.39166259765625,2.8622873
Ca3InN,0.048,dft,jarvis_alex,,0.2867693477990547,157.48272885740835,346.7207946777344,3.045587
CCaRh3,0.002,dft,jarvis_alex,,0.2279786709409414,205.487027529556,395.2997741699219,4.717418
MgRh2Zn,0.16,dft,jarvis_alex,,0.3300391913113477,139.402943839836,350.6485290527344,2.5943968
LiPt2Sc,0.0,dft,jarvis_alex,,0.1273244693694564,173.9114787814329,273.1140441894531,1.3562257
BiHfTi2,2.538,dft,jarvis_alex,,0.5485988291271653,144.20867864976506,273.8523254394531,5.825797
Si2W,0.0,dft,jarvis_alex,,0.1373214187070708,309.6673031313888,591.9270629882812,0.5314091
NbNi4Pt,0.0,dft,jarvis_alex,,0.1996805455487332,223.9028975367657,386.1803283691406,7.6836224
H2Sb2Ti2,0.0,dft,jarvis_alex,,0.162628897997619,352.6859845011965,428.0387878417969,0.5372779
B6K,27.436,dft,jarvis_alex,,0.7048255515472367,747.5946993631676,990.9842529296876,0.83667594
HLiPd,0.32,dft,jarvis_alex,,0.3113798635612415,460.102894125222,378.3240051269531,0.52444607
InMgSc2,0.0,dft,jarvis_alex,,0.1975955355332556,184.6067927189014,300.31085205078125,3.4926379
AlFeMnW,0.0,dft,jarvis_alex,,0.1538845772680473,312.3325532569592,444.3519287109375,1.8842515
CrVW2,0.002,dft,jarvis_alex,,0.2234749512901034,280.9280997190114,407.0256958007813,2.615612
B4TiZr,0.0,dft,jarvis_alex,,0.0962940768979409,594.0221814770857,1024.2930908203125,0.63026625
InMgY2,0.0,dft,jarvis_alex,,0.1885207189285548,149.51334799001953,267.6207275390625,3.1818533
CuOs2Sc3,0.013,dft,jarvis_alex,,0.2535230313822441,201.35116115225844,342.765869140625,3.2190166
TcTi2Zr,8.465,dft,jarvis_alex,,0.7360957087031265,208.1251000879604,357.71844482421875,4.16445
AlLiNbRu,1.278,dft,jarvis_alex,,0.4149831912058845,244.3799529300049,443.7522888183594,4.7311087
NbNiRu2,1.326,dft,jarvis_alex,,0.4190497914265376,241.13088440125367,449.9842834472656,3.6828465
Nb3Ru,0.62,dft,jarvis_alex,,0.3685361635365878,240.9060574656665,356.616455078125,2.1599333
FeGaTcW,0.002,dft,jarvis_alex,,0.2239177505679015,240.7837962708316,360.7521362304688,0.8668256
GaNbPt,1.223,dft,jarvis_alex,,0.4382806560825815,176.64969479770355,313.9738464355469,2.5113032
Rh2Sn3Ti3,3.577,dft,jarvis_alex,,0.5694084025009689,179.5336203922799,325.0526733398437,7.390551
Ni2ScSi2,0.141,dft,jarvis_alex,,0.3053566436615945,242.94125151179685,479.7435607910156,4.035026
Ni2P,0.3,dft,jarvis_alex,,0.3382677596523611,215.19486812738643,393.5368041992188,2.5586202
AlCr2V3,4.15,dft,jarvis_alex,,0.5262583734298389,274.41601090046964,538.6224365234375,4.357601
GaGeLiRh,4.387,dft,jarvis_alex,,0.6717454600506966,134.6577792902938,311.78289794921875,1.703308
InNbRu2,0.0,dft,jarvis_alex,,0.0951478272489493,236.34368205574933,401.5456848144531,0.10740401
MnNbRuSn,0.0,dft,jarvis_alex,,0.1634652370748447,249.54449154498212,386.3013000488281,0.9664608
Al5Tc,0.0,dft,jarvis_alex,,0.1547527633792133,285.4863022112689,620.0390625,0.8742216
CuGeLiNi,0.089,dft,jarvis_alex,,0.2978760994897654,195.6582192484899,337.72540283203125,2.7618682
TiZn2Zr,0.029,dft,jarvis_alex,,0.2746786576350203,155.29559715334386,356.8374328613281,0.7720244
AgTi2,0.344,dft,jarvis_alex,,0.3432253867195981,220.91935304466404,320.318115234375,2.1123998
GaRu2Ti,0.177,dft,jarvis_alex,,0.3125891578604716,245.9971875335749,434.4891052246094,3.5506678
MnTaTi2,7.566,dft,jarvis_alex,,0.7454607341756485,179.73224743531122,379.5718383789063,3.9069555
AlLiZn2,0.525,dft,jarvis_alex,,0.3646096246235499,218.95843939583227,386.0756530761719,0.71730196
H2Li2Rh,0.289,dft,jarvis_alex,,0.3401952859037914,198.0972250327784,460.5290222167969,1.6969482
Rh6Tc2,2.407,dft,jarvis_alex,,0.4721603106968422,246.61641914519024,443.1090393066406,11.298196
AlTcZr2,0.115,dft,jarvis_alex,,0.3041061525828192,207.3829762949067,321.1772155761719,1.4216645
AlReZr2,0.005,dft,jarvis_alex,,0.2378315593608223,202.67793283846004,339.5877990722656,1.2992976
CrNb2Re,0.004,dft,jarvis_alex,,0.2301782991069606,264.3445451033043,356.3354797363281,2.487607
Al2Ga2La2,2.564,dft,jarvis_alex,,0.5540682864802356,140.82855387055005,327.9222106933594,3.964518
PdSnTi2,1.697,dft,jarvis_alex,,0.4663890668539289,183.1118378270424,342.232421875,4.5737014
NiRhSc2,0.0,dft,jarvis_alex,,0.210163765806682,177.9501136707392,319.0678405761719,3.9211767
HfNbRu2,8.669,dft,jarvis_alex,,0.785481686387386,184.6504945982645,357.1590576171875,4.8596497
GeRhV,0.7,dft,jarvis_alex,,0.379317695426453,225.6225569149292,421.6828918457031,1.6901401
Al3LaZn,0.013,dft,jarvis_alex,,0.2569035776725137,159.72497647348237,339.58062744140625,1.755855
Mg4Pd2,0.0,dft,jarvis_alex,,0.1779567408899314,224.0711726867881,304.3372497558594,0.88706434
LuMgNi4,0.0,dft,jarvis_alex,,0.1644279319677238,228.0347561184548,359.4552917480469,11.184922
HNbNiRu2,0.036,dft,jarvis_alex,,0.2665272208368974,278.09918248802165,455.5464172363281,2.458412
CaGa2Rh2,0.0,dft,jarvis_alex,,0.2121763260908443,158.32183917262202,331.6006164550781,1.0133404
NbPtRu2,0.952,dft,jarvis_alex,,0.3981706509053379,229.47674539446885,409.1591491699219,2.9507897
AlCuLiPd,0.045,dft,jarvis_alex,,0.2809376803527136,185.0712076646,357.6673278808594,1.3706546
CCo2LiMg,0.0,dft,jarvis_alex,,0.1349130149382582,364.8327043647933,529.8862915039062,1.471401
C4Lu2Ti2,0.024,dft,jarvis_alex,,0.2505251969659173,434.756660893865,540.1756591796875,2.7298439
LiMgPd2,0.0,dft,jarvis_alex,,0.1196054103522221,164.08645030003214,307.1908264160156,0.80754286
Sb4Ti2,0.006,dft,jarvis_alex,,0.2416034664532087,189.84593538806607,322.6846618652344,1.2199452
AlMgSc2,0.001,dft,jarvis_alex,,0.2168041189289916,234.11863783379107,459.8197326660156,3.5481467
Cu2Rh2,0.056,dft,jarvis_alex,,0.280758475698076,230.8647444559425,382.4097595214844,4.5869694
CdInSc2,0.0,dft,jarvis_alex,,0.177516263829474,154.64299483068945,271.968994140625,4.5255384
OsRuZr2,0.0,dft,jarvis_alex,,0.1611090929239074,239.43130667794009,363.6829528808594,0.99789447
MgRh2Si,0.0,dft,jarvis_alex,,0.1849898591706767,225.27731760538992,447.5530700683594,0.997869
AlCr4Nb,0.501,dft,jarvis_alex,,0.3417312285588636,332.9017636526476,483.9468383789063,4.001593
Be3Ru4,0.413,dft,jarvis_alex,,0.3358403670465653,313.6372702288924,561.1234741210938,3.7826931
Cu3S4Si,0.0,dft,jarvis_alex,,0.1937561571766272,190.22900652758483,365.2226257324219,6.4736013
LiTl2Y,0.12,dft,jarvis_alex,,0.334803487127739,93.26520414390988,153.08680725097656,0.31210187
Al2Y,0.404,dft,jarvis_alex,,0.3602380227215189,182.7462668293016,431.6442565917969,1.1492816
LiNi4Zr,0.0,dft,jarvis_alex,,0.2047565770219067,230.3362359768624,410.2828979492188,7.410975
HfOs2Ta,9.69,dft,jarvis_alex,,0.9402845034519544,145.69629438574228,328.25830078125,3.7421613
AuHNaSi,5.148,dft,jarvis_alex,,0.9357517081557898,77.01441462350299,274.65594482421875,0.84959996
B4Sc2,0.116,dft,jarvis_alex,,0.2739781982892412,637.9801535883552,1099.5889892578125,2.0226302
CoGaLiTi,1.84,dft,jarvis_alex,,0.4461268767849879,243.829188937256,442.1812438964844,5.7940063
BeNbPd2,0.672,dft,jarvis_alex,,0.3830973305238241,203.51058674877032,398.0758972167969,1.7716683
GaTi2W,0.779,dft,jarvis_alex,,0.3829056733757968,236.8758028612041,335.9857482910156,3.624388
BeCGeSc2,0.0,dft,jarvis_alex,,0.1993024341891132,281.7068290500979,608.3941650390625,0.5915427
BeGeRhRu,0.0,dft,jarvis_alex,,0.1801376448009313,257.8187205932226,461.5519104003906,1.5831841
CCoPdSc2,1.268,dft,jarvis_alex,,0.4558791855904863,151.29121502083322,440.6269226074219,4.3008876
BRh2Tl,1.611,dft,jarvis_alex,,0.4784947150958332,155.05914781541952,400.1759033203125,1.7371244
Be4MnW,0.264,dft,jarvis_alex,,0.313049430578163,361.3373139219108,726.0709838867188,1.133518
Al2NiRu,0.0,dft,jarvis_alex,,0.1226632560128553,302.3931765211643,507.6511535644531,0.84384865
ScTcZn2,0.013,dft,jarvis_alex,,0.2529350578803181,198.16789420925303,340.7164611816406,1.9936787
Be2PdPt,0.1,dft,jarvis_alex,,0.296967156541626,227.1297352524991,394.3946533203125,1.1881952
Ga2RhRu,0.374,dft,jarvis_alex,,0.3599889091512075,170.1356717185257,385.2465515136719,2.9273362
FeHfTaTc,0.0,dft,jarvis_alex,,0.1479378742940469,246.8701276042286,345.0716247558594,2.0145109
Ni2P2Sc,0.009,dft,jarvis_alex,,0.2431978476676388,269.89007675080103,466.0399475097656,1.7609894
Os3Tc,1.771,dft,jarvis_alex,,0.4406784289326187,249.3631986437896,476.2236633300781,3.4350789
AuNb2Rh,1.668,dft,jarvis_alex,,0.4583832901918054,194.82107786473367,320.3114929199219,3.9000475
PdRu2Ta,0.892,dft,jarvis_alex,,0.3967620776300243,219.4566767457979,380.6654968261719,3.2484493
Be4RuSc,3.261,dft,jarvis_alex,,0.4703910566828528,338.4501202675616,737.92626953125,5.6909876
NbReV2,0.997,dft,jarvis_alex,,0.3927175091309199,260.29200375806573,366.88177490234375,3.6325128
TaTc2Ti,0.054,dft,jarvis_alex,,0.2763671514542546,268.7917538795206,397.3913269042969,2.901632
GaNbRh,2.694,dft,jarvis_alex,,0.521688497383306,184.0824897296008,390.2926025390625,1.0120939
BiZr3,7.374,dft,jarvis_alex,,0.9809375672626452,101.85909226274546,215.90684509277344,5.686257
BeSc2Zn,0.515,dft,jarvis_alex,,0.3576869040030546,244.97576738018927,456.3987731933594,3.0563416
AlCoGaRu,0.0,dft,jarvis_alex,,0.1442768323882371,241.510151631422,474.3709411621094,2.4508996
LaSc2Si2,0.183,dft,jarvis_alex,,0.3135490941434014,247.77910810593977,373.9692687988281,5.5796523
Co2Si2Y,0.0,dft,jarvis_alex,,0.2004000488237269,317.60339079584884,536.9749145507812,2.7887926
Ge2Sc2Ti2,0.256,dft,jarvis_alex,,0.3263186123143882,245.3526947030082,417.9150695800781,4.573892
AgMoPd6,0.004,dft,jarvis_alex,,0.2371259623051797,191.4322602977117,290.8135070800781,6.3732147
CoLiN,7.331,dft,jarvis_alex,,0.630131600707157,267.9838454115764,537.8443603515625,1.471303
MoRhZr2,1.495,dft,jarvis_alex,,0.4456310578130273,199.2743111778532,310.92095947265625,3.740078
LiPdSi,4.764,dft,jarvis_alex,,0.6671884203599785,148.70306337511164,395.6121520996094,0.8661159
AuNb2Ru,2.968,dft,jarvis_alex,,0.5286561782551653,193.0498307081132,319.1302795410156,3.3383157
OsScTcW,0.0,dft,jarvis_alex,,0.1337102762601417,247.38907001568128,368.3769226074219,1.8349524
InLa2Tl,2.345,dft,jarvis_alex,,0.6169251757918879,91.58351331654754,167.51353454589844,3.3516898
Al2CuLi,0.423,dft,jarvis_alex,,0.3533022776079199,219.1812850186432,485.6245422363281,1.2050905
MgPd3,0.009,dft,jarvis_alex,,0.2498370067552434,162.0109896889837,276.2055358886719,6.1231575
Ru2VZn,3.599,dft,jarvis_alex,,0.5530701269709535,199.2888962022644,412.2116394042969,3.7580652
Ga2Mo6,0.6,dft,jarvis_alex,,0.3606469093213877,269.62887177015654,430.2748718261719,3.8965104
CGeY3,0.224,dft,jarvis_alex,,0.3422120989595217,146.92778862193094,404.4023742675781,2.4631479
MoReV,0.91,dft,jarvis_alex,,0.3823681404254695,279.38107105541,393.6197814941406,1.7335602
P2Sc2,0.0,dft,jarvis_alex,,0.1292041028184316,337.44081682490565,556.0206298828125,0.6316565
LuRu2Y,0.184,dft,jarvis_alex,,0.3281422800224478,168.51515341448746,278.92803955078125,4.5040255
HPd2,2.191,dft,jarvis_alex,,0.4448417895510848,293.84819535709823,312.1800842285156,0.8967825
GaLi2Sn,3.524,dft,jarvis_alex,,0.6071903660492467,143.88872599263985,322.3166809082031,1.6296312
MgPt3,0.117,dft,jarvis_alex,,0.314342688817244,154.9383132655358,288.4514465332031,3.6318862
ReRu,2.949,dft,jarvis_alex,,0.4979529734785303,241.6989410948352,459.9267578125,1.7993209
NiPtZn2,0.0,dft,jarvis_alex,,0.1328606404005304,176.90992649582944,300.9675598144531,1.3107907
MnNiTi2,0.052,dft,jarvis_alex,,0.2758246030347861,263.8547212041479,437.2232971191406,5.177032
HNb2Rh2,4.852,dft,jarvis_alex,,0.5950719638759373,210.477070670798,404.7066345214844,2.8773036
FeMnSiTa,0.0,dft,jarvis_alex,,0.0791773011929871,349.5476380585748,476.5701904296875,-0.0194894
C2Cd2Sc4,1.452,dft,jarvis_alex,,0.4876411308195714,129.00473040795694,406.3347473144531,7.483636
BHfRu3,0.053,dft,jarvis_alex,,0.2794464966159818,232.1940767821159,472.3088989257813,2.4699757
MoOsTi2,1.649,dft,jarvis_alex,,0.4360180897021348,244.35224137355056,441.5085754394531,3.269141
Be2Hf2Si2,0.0,dft,jarvis_alex,,0.1026615284446111,304.4986997811911,506.0667419433594,1.1145293
Nb2RuV,0.046,dft,jarvis_alex,,0.273347196254459,262.74761212583,382.6797180175781,3.187144
Cu2Nb2Si4,0.0,dft,jarvis_alex,,0.1563418390537974,340.81405590033216,531.729736328125,0.7919293
P2Ru3,3.282,dft,jarvis_alex,,0.5881496211666447,147.66650368661956,456.1155700683594,3.0523567
AlGeNb6,21.851,dft,jarvis_alex,,2.1849714738418764,115.65178498177517,295.1340637207031,11.941585
AlCdRh2,0.0,dft,jarvis_alex,,0.1305199791482781,207.0242840596245,401.6698303222656,1.105695
Ta2VW,3.571,dft,jarvis_alex,,0.5482788428601105,203.77953345375195,314.8492736816406,5.499322
CoSn2,0.138,dft,jarvis_alex,,0.3151484920996386,178.3988279173616,290.0096740722656,1.7451521
ReTaTcTi,0.041,dft,jarvis_alex,,0.2713766239316543,252.09745030327912,372.3744812011719,1.4167545
Al5CoSc,0.0,dft,jarvis_alex,,0.194078046380894,318.95125849740094,559.1416015625,1.6103839
HMo2PtTc,7.583,dft,jarvis_alex,,0.6795940456530939,225.61305702855185,430.1050720214844,3.1302118
MoNb3,6.214,dft,jarvis_alex,,0.6717056794917136,191.42842173704983,257.7366638183594,5.72214
CdHZr2,1.498,dft,jarvis_alex,,0.4602786863399276,171.13220344593708,283.2189636230469,2.890522
MoOsTaZr,0.083,dft,jarvis_alex,,0.2924377735420513,220.48713898850824,357.5658874511719,2.3989697