formula,Tc,tc_source,dataset,pressure_gpa,lambda,wlog,debye_temp,dos_ef
MgRh,0.046,dft,jarvis_alex,,0.2857416139028108,155.12224827313094,390.3475036621094,1.3058332
CCo2MgNi,0.016,dft,jarvis_alex,,0.2530563401458771,252.54956633888,523.5015258789062,2.772803
MoTc3Ti2,0.544,dft,jarvis_alex,,0.3562409720525254,266.6173448501275,406.8010559082031,4.311384
GeNbTc2,0.081,dft,jarvis_alex,,0.2896135680656897,237.8600392112342,394.0638732910156,2.807704
LiRhRuSi,0.232,dft,jarvis_alex,,0.3218234858764987,249.64392460549607,514.58837890625,3.1359231
CuPt2Zr,0.0,dft,jarvis_alex,,0.1685443921485069,176.4824109944462,312.8474426269531,1.8799607
CrMo2V,0.097,dft,jarvis_alex,,0.2878360909396345,304.7766550377599,462.4558715820313,1.933919
In2ScZn,0.011,dft,jarvis_alex,,0.2542537507269965,159.8622374788266,286.5376281738281,1.574853
NTlZr2,0.591,dft,jarvis_alex,,0.3675153460688558,233.20768567543928,336.4694519042969,2.6533976
OsSi3Y,1.915,dft,jarvis_alex,,0.4524576128948297,237.09558586919644,382.0003356933594,1.7772532
Hf2HgN,0.105,dft,jarvis_alex,,0.3020300968480554,202.04852108651505,301.9412536621094,1.7970129
GeNi3,0.0,dft,jarvis_alex,,0.1170129228717259,229.88696444688003,447.3995056152344,2.7995198
AlCHf2,0.073,dft,jarvis_alex,,0.288118120532976,225.3306541438625,415.4333190917969,0.7276612
Mo2ReW,9.87,dft,jarvis_alex,,0.7802083580923981,213.4148401478581,397.3316955566406,3.4259512
Mg2Sc,0.08,dft,jarvis_alex,,0.2923189874209776,213.04491901411456,347.6102600097656,2.6188545
HfMo4Sc,0.489,dft,jarvis_alex,,0.3609673905774692,218.3158915271653,344.3432312011719,6.022224
MoPt2Zn,0.743,dft,jarvis_alex,,0.3974302089994119,180.9139314318492,336.5124816894531,0.9130182
Hf3NZr,1.588,dft,jarvis_alex,,0.4755679220158971,157.0526374325289,346.6297302246094,4.482814
Be4IrMg,1.576,dft,jarvis_alex,,0.3975125677299598,382.4167999179263,655.7929077148438,3.1362774
Cu3Li,0.0,dft,jarvis_alex,,0.17805848560005,244.9093378006024,324.7062072753906,0.8733523
LiNiZn,0.002,dft,jarvis_alex,,0.2249304617648945,192.2791257864069,367.7945251464844,1.3680998
Au2CdZr,0.573,dft,jarvis_alex,,0.4289186675367383,91.9830936377442,177.2355194091797,1.6444737
InLiSc,0.256,dft,jarvis_alex,,0.3397856504812589,177.1842098302754,338.6185607910156,1.6258993
Hg2LiPd,0.267,dft,jarvis_alex,,0.3794580843086101,85.8040833296448,172.37342834472656,1.4407055
Ca2NNa,0.0,dft,jarvis_alex,,0.1588549481688272,189.53994843647675,256.6107482910156,1.234325
BaSi2Zn2,0.01,dft,jarvis_alex,,0.2496367333860188,194.41331423699413,313.8744506835937,0.6177799
HfOsTaTc,0.0,dft,jarvis_alex,,0.1140729447008819,227.5043637124493,345.4625244140625,1.8555074
BeCSc,0.236,dft,jarvis_alex,,0.29698229223016,535.1611760007515,984.9132080078124,1.0387145
GeHRh3,0.525,dft,jarvis_alex,,0.3982728499360619,125.9807467086376,389.7819213867188,1.602787
GaHfRu2,0.317,dft,jarvis_alex,,0.3461462178116006,191.1387421820216,346.8573913574219,4.4480853
AlMo2Ti3,9.209,dft,jarvis_alex,,0.776274148913831,200.3303075619469,473.5813903808594,7.553933
Al2Pd2Ti4,4.218,dft,jarvis_alex,,0.5849127796218621,193.8500561150399,397.6631774902344,7.6052947
Ni5PTi,0.0,dft,jarvis_alex,,0.1854573986361806,265.34705160685405,445.2704162597656,3.8581984
NSbSr3,0.0,dft,jarvis_alex,,0.0495902893097502,142.3817929678667,309.5689392089844,0.0
CdH2Rh2,0.035,dft,jarvis_alex,,0.2663980478151081,274.36760154009505,352.7637023925781,1.9935281
LiPd2Sc,0.033,dft,jarvis_alex,,0.2842133894270799,118.04686398848295,267.4845275878906,1.6728822
Cu2LiZn,0.005,dft,jarvis_alex,,0.2374524527640293,206.51331537196825,314.1335144042969,1.2639304
CCdScY2,0.725,dft,jarvis_alex,,0.4179196974623413,133.09256619035995,374.0879211425781,5.024539
LiMg2,0.005,dft,jarvis_alex,,0.2353664946890643,245.17794060736745,466.654296875,0.9363859
Rh6V2,0.289,dft,jarvis_alex,,0.3280427420543585,265.1212984997131,477.3550109863281,6.107902
Cr2Re2,10.738,dft,jarvis_alex,,0.7992150273553126,219.2750499504143,417.8177490234375,1.9073875
LiS2Zr,5.527,dft,jarvis_alex,,0.6981752974845074,153.54598396463803,440.0780944824219,1.939095
HHgLiPd2,0.007,dft,jarvis_alex,,0.2390937958804791,281.94908121175155,229.9276885986328,0.8848805
Co2GaRe,0.714,dft,jarvis_alex,,0.3807270474165599,225.1625585807212,433.20452880859375,2.5206254
LiRh2Sc,0.099,dft,jarvis_alex,,0.3044759982559141,175.45090633013518,382.4057922363281,2.0718267
AuCV2,0.148,dft,jarvis_alex,,0.3017626574816201,286.69998535995967,493.530517578125,2.7277365
Al3NiRh2,0.004,dft,jarvis_alex,,0.2332854890790738,204.80512317850992,504.6571350097656,2.828177
GaRuSc2,0.019,dft,jarvis_alex,,0.2601036202011664,207.8506004490322,353.5344543457031,1.5982319
Mn2NbV,0.071,dft,jarvis_alex,,0.2796314693508605,306.218442665045,506.101806640625,1.4777572
GeRu2Si,0.0,dft,jarvis_alex,,0.1837748742931568,227.06758222948585,456.7015380859375,0.6702986
Co4La2Si2,4.172,dft,jarvis_alex,,0.6321374565882206,151.39491708685904,377.4460144042969,9.896121
Ge2Ni,0.598,dft,jarvis_alex,,0.3832830165131295,180.6218954740323,332.48486328125,1.0963509
BeRhRuSi,0.0,dft,jarvis_alex,,0.1766092594584032,314.7318004968717,541.7326049804688,1.5690843
CoH2Hf2,2.21,dft,jarvis_alex,,0.4844037869622288,201.9086090228297,280.5019226074219,2.540185
Os2SiTi,0.0,dft,jarvis_alex,,0.090270867486811,212.7725629877532,439.880126953125,0.15930443
FeSc2Zn,0.474,dft,jarvis_alex,,0.3686679884835498,183.4372369941865,366.1828308105469,3.3661509
BeCo2Mo,1.053,dft,jarvis_alex,,0.4048482940714566,230.6075619202273,588.7858276367188,3.3791258
AlMg2Y,0.101,dft,jarvis_alex,,0.2992783772945118,211.5585240757708,400.0078430175781,1.8505805
FeLiSc2,0.001,dft,jarvis_alex,,0.21225962437305,247.3250310921739,373.7812194824219,1.9147224
V2W,3.215,dft,jarvis_alex,,0.5111904155470184,237.0011128903194,354.8986511230469,3.5592182
Pd3Ti,0.007,dft,jarvis_alex,,0.2424132109672173,204.0768152895249,391.5667419433594,2.1609898
ReTc2Ti,6.449,dft,jarvis_alex,,0.6652151302444526,203.9110077397204,424.1579284667969,2.3470972
TcTiZn2,0.274,dft,jarvis_alex,,0.3364790392020804,204.76440978332897,400.9627075195313,1.7575376
AlTc2Ti3,0.319,dft,jarvis_alex,,0.3324743436059043,261.93537146817584,449.7641906738281,3.3670986
LiRu2Si,6.367,dft,jarvis_alex,,0.6968496048547339,178.04601875110532,509.9771118164063,4.0353956
Os6Ta2,5.409,dft,jarvis_alex,,0.6517358600917761,181.4023188947883,388.7669677734375,6.635715
C2Ga2Mo4,8.148,dft,jarvis_alex,,0.6554500384700269,266.8772206649557,533.9949340820312,5.148732
CdH2Sr2,1.72,dft,jarvis_alex,,0.5875064278458932,77.84682937947996,264.9104309082031,2.5197175
Ru2SiTc,7.163,dft,jarvis_alex,,0.6790079098883469,215.0104965578184,517.5459594726562,2.6223688
BeCoFeTa,0.0,dft,jarvis_alex,,0.0933282491751753,295.305583180031,422.0007629394531,0.58279806
MgZn2Zr,0.008,dft,jarvis_alex,,0.2486134273469849,172.2058150786203,348.944091796875,1.0461402
Ru4Tc4Zr4,9.784,dft,jarvis_alex,,0.8284402005057792,186.11995878314585,320.2749938964844,15.016469
AlCScZr2,0.209,dft,jarvis_alex,,0.3246591650065316,208.5223727243507,558.5414428710938,2.4754157
AlCuMgPd,0.033,dft,jarvis_alex,,0.2748727424124586,175.25328487351183,336.4803771972656,1.7622073
Ni2RuTa,0.002,dft,jarvis_alex,,0.2248670969085504,237.913331867559,396.3269958496094,4.6703362
Ni2PtTi,0.0,dft,jarvis_alex,,0.1102499307803638,246.588204897276,414.4938659667969,0.5955026
LiNi,0.0,dft,jarvis_alex,,0.1800562446026319,249.0432100041904,424.2738342285156,1.0762453
OsTcV2,6.44,dft,jarvis_alex,,0.6154986031925332,253.79552435780903,441.2479553222656,3.3510518
N2Sn2Zr4,2.679,dft,jarvis_alex,,0.4802119735904144,254.16202367320324,377.2486267089844,4.056858
HRh3Y,3.121,dft,jarvis_alex,,0.5047880858340702,241.4214687528141,387.3023986816406,3.8789005
AlInTi6,1.839,dft,jarvis_alex,,0.4443941535029438,248.3715941470259,432.0025939941406,6.7787023
NbReTcZr,0.065,dft,jarvis_alex,,0.2842357538498,234.2522930384805,368.05902099609375,2.3122199
Ru2ScSn,0.0,dft,jarvis_alex,,0.2011616233764214,217.7569825455784,436.9667053222656,2.4333837
InPbTi6,5.664,dft,jarvis_alex,,0.6490903322570452,191.1931792743672,331.0195617675781,6.2931633
Mo6Zn2,7.442,dft,jarvis_alex,,0.6972479415372712,208.7304296492188,420.77642822265625,7.170707
CdCu2Zr,0.008,dft,jarvis_alex,,0.2488316908926103,157.7321236856629,314.9204406738281,1.3991585
Ru2SiZn,0.61,dft,jarvis_alex,,0.3721901103768971,222.14970255993583,466.4006652832031,4.5278645
B4Mn2,0.0,dft,jarvis_alex,,0.2016585351834176,501.51882375215496,1047.5709228515625,2.2879663
Al3CaPt,0.517,dft,jarvis_alex,,0.3718512432734178,189.20243741210817,327.87225341796875,2.0453234
B4NbTi,0.13,dft,jarvis_alex,,0.2810674664082157,532.2680025399659,979.9525756835938,2.2478833
Al3Ni2Rh,0.003,dft,jarvis_alex,,0.2290696669945185,233.5152852971263,524.2604370117188,3.3468747
FeSbTcTi,0.0,dft,jarvis_alex,,0.0890296950404908,276.017304806714,376.1141357421875,0.0344135
HPbPd3,1.779,dft,jarvis_alex,,0.4737676705852858,178.70577088685448,221.26235961914065,3.0629106
AlCu2Y,0.114,dft,jarvis_alex,,0.3095493152758566,172.5905070192283,335.44439697265625,1.3767315
CoGa3Ru2,0.166,dft,jarvis_alex,,0.319952231920973,187.4442934117596,413.92864990234375,5.6801324
As2P2Ti4,0.0,dft,jarvis_alex,,0.1676251020419294,319.06166968818894,505.873291015625,2.9449344
Al2C2Ca2,0.0,dft,jarvis_alex,,0.1653678768107538,360.2811743779459,565.0211181640625,1.052818
Al3MgSr,0.0,dft,jarvis_alex,,0.2099603710233074,226.21574702276115,350.058349609375,1.5316072
CuInNiSc,0.616,dft,jarvis_alex,,0.4042103863770812,136.1350239407675,325.4176940917969,2.9402144
H2NaPd2,0.709,dft,jarvis_alex,,0.3551142424059033,354.11667543350666,300.3436889648437,0.83577013
Ti2Zn2,2.794,dft,jarvis_alex,,0.501616711382428,222.0644296960075,341.5586853027344,4.2573466
Rh2TaZn,0.002,dft,jarvis_alex,,0.2272569666329001,178.2323912531689,324.7457580566406,1.1558487
Al7Zn,0.441,dft,jarvis_alex,,0.3411062795963117,297.02098958972954,507.6961364746094,2.9509897
B2Ca2Co2,0.0,dft,jarvis_alex,,0.184860215740178,356.7660731429684,508.5992431640625,1.0664346
PdRhV2,3.935,dft,jarvis_alex,,0.5513745782489795,220.30695174604023,430.89654541015625,3.2367544
AlCo2Sc,0.0,dft,jarvis_alex,,0.0965156445287823,272.5981749535591,546.6926879882812,2.0797145
NRe3,1.944,dft,jarvis_alex,,0.4355491719537911,289.13959557553346,461.2391357421875,2.4966807
InLa2NSr,1.36,dft,jarvis_alex,,0.5103924173029207,100.62657856842227,282.0877685546875,2.8227346
AlLiPtSc,0.555,dft,jarvis_alex,,0.3689152197408286,213.79483874141712,308.1642761230469,4.0523415
AlLiOsTc,0.316,dft,jarvis_alex,,0.3373497881540247,231.39791361565025,349.6889343261719,1.3545202
PbTl2,3.786,dft,jarvis_alex,,0.9665598389549452,53.9762003949977,99.61799621582033,1.4343971
Be4OsTc,1.774,dft,jarvis_alex,,0.4225870210541718,307.7708066727076,640.9559936523438,1.2855532
Tc3TiV2,0.291,dft,jarvis_alex,,0.3241388247743549,294.54359959922664,443.7118835449219,3.97129
GeS3Sc4,0.117,dft,jarvis_alex,,0.2955764314648243,278.0735867969594,478.18853759765625,3.5772083
HgSnTi6,3.599,dft,jarvis_alex,,0.5416383949869811,214.31719159484527,318.2086486816406,7.1542315
SnTi2,0.153,dft,jarvis_alex,,0.3127165207039529,212.489078245427,374.1334533691406,2.3877673
BeGaRh2,0.0,dft,jarvis_alex,,0.1398183625863668,245.6036976109405,439.89739990234375,1.3190706
Ru2SbZn,0.111,dft,jarvis_alex,,0.3070448645737024,182.89595752178187,370.72308349609375,1.7510079
MgPdRhZn,0.0,dft,jarvis_alex,,0.1036926508393682,187.3386814720394,348.4391784667969,1.6161147
TaTi3,15.171,dft,jarvis_alex,,1.5725167418829629,109.79973025940848,250.7404022216797,7.3055906
AuNb6Pt,14.04,dft,jarvis_alex,,1.6359162749996792,97.36792211630654,342.5742492675781,10.889143
In2TiZr,0.035,dft,jarvis_alex,,0.2736542620522479,193.26052552536308,322.0204772949219,3.2773292
Al2Ni2Si,0.0,dft,jarvis_alex,,0.1769516520811507,315.3110108457016,544.394775390625,1.9927027
HRh2RuTi,1.448,dft,jarvis_alex,,0.4183699925013797,264.70831760629613,458.5276794433594,4.9066396
NiTcTi2,0.56,dft,jarvis_alex,,0.3719256466201854,204.85367177107943,427.6940612792969,3.442913
H6PtRhSr2,0.019,dft,jarvis_alex,,0.2506175069109189,348.57343182971056,333.5209655761719,1.4393688
CCdNiRh2,0.108,dft,jarvis_alex,,0.303634826524873,197.26198506659884,378.1267395019531,0.8141697
Ca2CoH6Pt,0.002,dft,jarvis_alex,,0.2197763118824558,375.0638640785781,409.3318176269531,0.9112592
AlIn2Y,0.301,dft,jarvis_alex,,0.3498274204231643,167.93815726520828,270.0039978027344,1.2383482
H2Lu,0.097,dft,jarvis_alex,,0.2914162848979545,265.91822188699075,384.9976806640625,0.6177308
BeRh2Zn,0.102,dft,jarvis_alex,,0.2991212497095754,214.1083362264272,436.3619689941406,4.8627715
OsRuV6,1.881,dft,jarvis_alex,,0.4318138024162397,292.80621813223,480.5107727050781,6.8936815
AlPt2Rh,0.93,dft,jarvis_alex,,0.4307854245219815,146.18152252576095,316.6643981933594,3.0190313
Ru3TaV2,7.779,dft,jarvis_alex,,0.7129829726026558,206.1087750189232,386.2765808105469,5.310264
Al3Zr,0.606,dft,jarvis_alex,,0.3589467222980265,281.5798029021249,501.4977722167969,1.7475239
Al2ZnZr,0.0,dft,jarvis_alex,,0.1709291637979381,284.4704304025556,435.2101745605469,0.7884642
AlFe2V,0.0,dft,jarvis_alex,,0.1496520136516269,340.4889046293191,597.9569702148438,1.4737582
MgRh2Sc,0.0,dft,jarvis_alex,,0.1418335608955783,213.3095712271888,378.9513854980469,1.693204
OsRhScZr,0.0,dft,jarvis_alex,,0.1371637157882499,220.6773953202933,325.1688842773437,0.8366104
Ti2V2W3,6.509,dft,jarvis_alex,,0.6353906289310519,233.6481986083716,367.86376953125,10.479256
Cu2MgPd3,0.0,dft,jarvis_alex,,0.0897646851658354,149.7498923408398,303.1846008300781,1.76256
LiRuZn2,0.0,dft,jarvis_alex,,0.1872842222218786,183.9081423733713,323.6172180175781,2.1926363
BHfInTi2,0.371,dft,jarvis_alex,,0.3508281206917947,202.11504528795027,442.2675476074219,3.1632192
O2Sc6,2.198,dft,jarvis_alex,,0.45688945488771,260.49056774914175,442.95843505859375,10.294192
MgPd3Zn2,0.0,dft,jarvis_alex,,0.1616392113896235,176.28560574697377,313.1196594238281,1.3982604
NRhV2,2.049,dft,jarvis_alex,,0.4303712061486294,323.6851923501243,588.3038940429688,3.7163882
InLiNRu2,1.298,dft,jarvis_alex,,0.4174486936695111,239.9677737861316,389.6247863769531,1.3554585
Be2P2Y,0.045,dft,jarvis_alex,,0.2685004336210621,315.58449826377097,591.1286010742188,1.8511782
Be4RhSi,1.951,dft,jarvis_alex,,0.4186177370552352,355.5856954954791,816.2107543945312,1.7088704
CPbY3,0.004,dft,jarvis_alex,,0.2347982845566154,206.6024176421702,328.592529296875,2.6331172
GaRuTcW,0.024,dft,jarvis_alex,,0.2631611811718731,221.51954608097307,386.59564208984375,1.2731507
CCdZr2,0.038,dft,jarvis_alex,,0.2757385072807818,193.6531978499989,400.9862365722656,2.1754725
Tc2TiV,0.395,dft,jarvis_alex,,0.3373280509675853,289.853838852973,454.5906677246094,3.0041852
Rh6Sc2,0.864,dft,jarvis_alex,,0.3969365729597299,212.02045574047025,387.8431091308594,5.0714803
LaSb,0.0,dft,jarvis_alex,,0.1093056085926061,151.42350130326966,219.15298461914065,0.39139256
Fe2SnTi,0.0,dft,jarvis_alex,,0.0726332412365222,302.8881169882747,491.574462890625,0.05260321
NiRu2W,0.521,dft,jarvis_alex,,0.3583264930687003,244.9657098283612,431.5347595214844,1.8786391
PdS2V,0.368,dft,jarvis_alex,,0.3435525317321612,234.39901439780084,350.6127319335937,2.7765136
C2TaZr,4.886,dft,jarvis_alex,,0.5070301943515026,371.1232952975069,597.728515625,1.4582837
AlHgTi2,0.056,dft,jarvis_alex,,0.2796879184595328,241.66317338299783,341.8551940917969,3.9515498
NbPdRu2,1.288,dft,jarvis_alex,,0.4219420823768276,225.7850809317549,422.9194030761719,3.391351
NiTcTi2,0.13,dft,jarvis_alex,,0.3002657902531898,264.4278844154404,430.3923645019531,4.383002
InLa2NY,0.318,dft,jarvis_alex,,0.3549515563846835,159.55758341051194,297.82159423828125,2.8441756
HfPd2Rh,0.0,dft,jarvis_alex,,0.2109352006714349,189.80144503684232,338.1602478027344,3.6066775
RuV2W,0.959,dft,jarvis_alex,,0.384014729262622,286.8798082599058,438.3114013671875,2.8490493
Pd2TaZn,0.033,dft,jarvis_alex,,0.2745602940528799,177.37287127841196,320.3130187988281,1.2976223
Mg3N4,0.011,dft,jarvis_alex,,0.2452591268284762,287.07972945543463,581.3347778320312,1.9289625
H2Sc,0.017,dft,jarvis_alex,,0.2436448638466991,487.0589226148542,709.4327392578125,0.7742409
GaHf2Tc,0.008,dft,jarvis_alex,,0.2472586531704172,181.50132511041,275.4245300292969,1.0812266
CrRe2Ti,2.677,dft,jarvis_alex,,0.4805652465762691,253.96903905792,365.0672912597656,2.519957
PdZr4,6.635,dft,jarvis_alex,,0.8340839282983923,123.82639665942756,278.7552185058594,5.56847
AuTcTi2,2.235,dft,jarvis_alex,,0.519042559073036,155.1800554401782,311.8478088378906,3.523714
AlOs2V,0.072,dft,jarvis_alex,,0.2847269769621254,254.63475783294183,409.0375061035156,1.4625415
NZr,10.959,dft,jarvis_alex,,0.6521372705032571,364.6073480393893,626.471435546875,0.7796478
AlLiMg2,1.957,dft,jarvis_alex,,0.5068203102315847,148.85114227225705,429.5500793457031,0.91815865
InLiRh,0.002,dft,jarvis_alex,,0.2301670438887416,163.86905611130865,311.8200988769531,1.47268
GeLiOSc2,0.051,dft,jarvis_alex,,0.2738851071813371,283.6589682606524,455.1360168457031,2.21395
Mn4ReTa,10.466,dft,jarvis_alex,,0.7472229977273452,248.2254957941241,407.8952331542969,7.0041804
MnTa3,0.467,dft,jarvis_alex,,0.3649127271291276,193.5959101613376,293.7802734375,3.2443495
HfRhTcZr,0.0,dft,jarvis_alex,,0.1667032482267361,221.7392445093928,349.1272888183594,1.5391351
MoNbTa,2.299,dft,jarvis_alex,,0.4909812967257859,199.1988121709645,336.7051086425781,3.1616635
GaNb6Ta,6.345,dft,jarvis_alex,,0.6667982277045721,199.75277583595044,266.0545959472656,8.398004
As2Y2Zr2,0.328,dft,jarvis_alex,,0.3490510122777029,185.61593325012203,337.7499694824219,5.7143927
IrLiP2Tc,1.756,dft,jarvis_alex,,0.4565262478195284,208.3160036864035,380.95013427734375,3.2630022
Co2P2Sc,0.271,dft,jarvis_alex,,0.3243736578840012,272.82616697226354,512.51953125,3.8351014
NSnSr3,0.015,dft,jarvis_alex,,0.2607680516934809,157.43109270330183,204.9573516845703,5.0989213
RhTcZr2,0.0,dft,jarvis_alex,,0.2011783567607869,227.1580711810469,370.80474853515625,1.5836368
H4K2Pd4,1.979,dft,jarvis_alex,,0.4271507072662038,324.2637766215954,301.2698059082031,1.3747766
HfLaN2,1.088,dft,jarvis_alex,,0.3872015365301703,308.59882018629105,479.7194519042969,1.2441998
H3LiPt,17.677,dft,jarvis_alex,,0.6152094857943973,692.7840079491676,360.7159118652344,0.56383574
GeTc2,3.608,dft,jarvis_alex,,0.523664111401878,243.33256114725,418.6395263671875,1.317313
Tc3Ti,10.237,dft,jarvis_alex,,0.805322647113731,206.29027364470392,450.4595336914063,2.5486789
MnNb2Re,0.021,dft,jarvis_alex,,0.2564194440715379,273.894426239841,370.2291870117188,1.8485332
Os2ScV,0.001,dft,jarvis_alex,,0.2180628488880103,254.2414732164944,389.8605651855469,1.198485
Be2Rh3Zn,0.091,dft,jarvis_alex,,0.2924046639292083,242.3813059655339,461.4527282714844,6.020429
HfReTcW,0.0,dft,jarvis_alex,,0.195647495646352,227.01722398753932,338.6942138671875,1.5561119
CdGeRh2,0.063,dft,jarvis_alex,,0.2936762445866529,160.2856569698391,336.6531677246094,1.2914624
Ca2H2Si2,0.303,dft,jarvis_alex,,0.3211570531137623,331.7157145353933,487.7019958496094,1.4126184
Ni2PdTc,0.22,dft,jarvis_alex,,0.320511723410824,245.27787006833023,403.2473449707031,3.6540215
N3OSc4,0.024,dft,jarvis_alex,,0.2466835814958655,557.2410484950697,725.6876831054688,2.3190024
CHfInTi2,0.145,dft,jarvis_alex,,0.309007964732012,224.27991618331063,450.47021484375,3.713957
In2Rh2,0.001,dft,jarvis_alex,,0.2231463090736035,131.59624341555917,323.32275390625,1.2593344
FeGeNbTc,0.0,dft,jarvis_alex,,0.1730775495954441,264.10067639201554,430.7589416503906,1.223148
LiScSn2,0.962,dft,jarvis_alex,,0.4253103717996918,161.43645657023325,252.14878845214844,1.9917289
HMgPd,2.53,dft,jarvis_alex,,0.4591900861432963,292.1510633842043,367.705078125,0.8252621
Cr4Zr2,0.428,dft,jarvis_alex,,0.3441752218229324,269.2672605653977,372.5299377441406,4.5423503
OsRuSc2,1.542,dft,jarvis_alex,,0.4539891491297151,188.16464808994144,365.6809692382813,4.598765
Al3Rh2Ru,0.0,dft,jarvis_alex,,0.1347999880116244,283.24747146853895,495.0574951171875,1.644277
HPd3Sn,0.515,dft,jarvis_alex,,0.374578478059038,179.36269124534337,271.1720886230469,2.8818407