formula,Tc,tc_source,dataset,pressure_gpa,lambda,wlog,debye_temp,dos_ef
Ti2Zr,6.939,dft,jarvis_alex,,0.6836250487499196,204.50236982377507,346.7417907714844,3.185898
As2Ni2Zr2,3.07,dft,jarvis_alex,,0.5583572197427538,164.50042715177025,355.6012878417969,4.2819586
HMgRh,0.027,dft,jarvis_alex,,0.2562115584537126,360.5431016567916,434.39013671875,0.6703042
SbSc,0.0,dft,jarvis_alex,,0.1279180269247557,206.7540075296483,289.2680969238281,0.5139583
AlCoRuZr,0.0,dft,jarvis_alex,,0.0772809704974053,266.3231980059996,457.3641357421875,0.56286025
Mg4ScY,0.818,dft,jarvis_alex,,0.4191808518798504,148.1532804012917,347.9571838378906,6.4694285
SbTc2Ti,0.0,dft,jarvis_alex,,0.2090259796026074,233.50350904336096,397.4169006347656,2.5080042
MoTa,0.148,dft,jarvis_alex,,0.3097556496226443,223.00558272356488,364.9836120605469,1.7307204
TcV3,1.377,dft,jarvis_alex,,0.4089053249485515,285.5523174734811,427.3941345214844,2.8986537
Be4Nb2,4.403,dft,jarvis_alex,,0.5132648837015267,319.2747179775879,634.7587280273438,3.8591344
Au2Ti6,0.826,dft,jarvis_alex,,0.3815961985802542,256.64786763466594,310.4552917480469,10.647978
Co2RuTa,0.512,dft,jarvis_alex,,0.3564477967517975,249.84024595515447,422.5075073242188,4.0518384
MnNb2Re,0.007,dft,jarvis_alex,,0.2393692142974138,272.52912796058,350.74322509765625,1.176365
Ni2PtZr,0.001,dft,jarvis_alex,,0.2161395527465478,193.47048576861872,375.9175109863281,2.7425437
Os2RuTa,7.809,dft,jarvis_alex,,0.7566650737677818,180.50839773714972,395.6808166503906,4.7306175
Nb2TcV,0.453,dft,jarvis_alex,,0.3461708787290417,272.6338158876818,362.74407958984375,1.9844563
Al2NbNi3,0.664,dft,jarvis_alex,,0.3794701672417862,213.74100091207595,480.4400329589844,4.6651845
La4NO3,2.969,dft,jarvis_alex,,0.4891660839981241,261.18060705506844,414.9044189453125,2.8696775
Ru3W,4.188,dft,jarvis_alex,,0.5568229408937809,227.03680469239967,455.146728515625,5.2159314
Tc3Ti2W,0.159,dft,jarvis_alex,,0.306678696694897,263.3102156902758,402.0760498046875,4.114734
Cr4Os2,6.295,dft,jarvis_alex,,0.576241089034975,303.94442802896924,389.9866333007813,4.6093793
BiNbTi2,0.555,dft,jarvis_alex,,0.365392826320939,228.0202024325274,303.8257751464844,3.1735082
AlGaSc,1.238,dft,jarvis_alex,,0.4732090584770891,125.05072746346656,440.7814025878906,0.78050375
CuNi2Sc3,0.302,dft,jarvis_alex,,0.3505385331764502,165.54039356412744,373.9060668945313,5.804762
OsTcV2,4.696,dft,jarvis_alex,,0.5518700172694089,262.28349660185137,442.2041931152344,3.2771955
CuOsRh6,0.521,dft,jarvis_alex,,0.3587212162982885,242.9633732513872,418.9690856933594,8.271793
In2LiRu,0.104,dft,jarvis_alex,,0.313162256189795,142.48344578790773,283.9283142089844,2.0503423
ScTl2Y,0.298,dft,jarvis_alex,,0.3756031952837292,102.15704447046105,166.78038024902344,2.548714
Ru4Sc2,11.76,dft,jarvis_alex,,0.9436171147969944,175.3522228440484,331.5555725097656,6.2897296
Al3Ti,0.0,dft,jarvis_alex,,0.1649029951037955,353.1403270390239,662.9606323242188,2.049707
AlCuGa,0.067,dft,jarvis_alex,,0.2846094065401533,239.43699800178868,391.2319030761719,1.1466109
Be2NiY,7.141,dft,jarvis_alex,,0.7393164141397479,172.26784766065478,512.6014404296875,3.0390072
SiTc2W,1.174,dft,jarvis_alex,,0.4173545358838816,217.8917686722364,390.23834228515625,1.2144868
Co3HTi,0.0,dft,jarvis_alex,,0.2053419131828495,341.6940150807884,526.7666625976562,3.4070745
NbOsTa2,0.024,dft,jarvis_alex,,0.2641571916562906,209.23928246377423,334.05242919921875,2.1223972
Al3Cu2Rh,0.019,dft,jarvis_alex,,0.2595396673541914,212.3157784558582,429.0241394042969,2.1145358
Ca2H6PdRu,0.037,dft,jarvis_alex,,0.2563498718367956,482.2580286863091,447.8840026855469,1.603285
PtTcZr2,2.146,dft,jarvis_alex,,0.551761780091824,119.43907863784362,277.7731628417969,3.4641738
NiPt2Zr,0.001,dft,jarvis_alex,,0.2132625153684849,180.8939121260824,331.5008239746094,2.0855882
Nb2Si2Zr2,0.111,dft,jarvis_alex,,0.2975082999101553,246.38244726688464,452.1054382324219,2.2517416
FeNbSb,0.0,dft,jarvis_alex,,0.0240268351921508,268.62355432338416,377.0729064941406,-0.04635975
B4Mo4,0.839,dft,jarvis_alex,,0.3591264443360899,388.0905472931697,738.14306640625,2.139664
Cr3V5,6.921,dft,jarvis_alex,,0.6568431173247974,225.73158592754208,499.2945861816406,9.055678
HfNiRh2,0.05,dft,jarvis_alex,,0.2798001596908525,215.2752978495401,366.6354064941406,4.6908126
HfNbRe,0.267,dft,jarvis_alex,,0.335709802317136,203.0845250091217,306.9942932128906,2.6544166
Cr6Re2,13.271,dft,jarvis_alex,,0.8482557763797868,240.6580808764524,429.0724487304688,12.436134
CClSc2,0.013,dft,jarvis_alex,,0.2429616985499209,390.5744142169772,496.3346252441406,2.2020936
HTlZr3,2.884,dft,jarvis_alex,,0.5313295150674822,183.49358092587389,340.6264953613281,3.6398728
AlSc3Zn2,0.034,dft,jarvis_alex,,0.273288627803033,192.0258798332526,388.5439758300781,5.452887
Rh2WZn,0.405,dft,jarvis_alex,,0.3592814564670805,186.87602733045577,373.59661865234375,1.8484817
HNiRu2Ta,0.015,dft,jarvis_alex,,0.25022518442295,272.259613180308,408.5086364746094,2.6914237
Ru2SiTi,0.0,dft,jarvis_alex,,0.0453218037841477,274.7741542495248,539.3230590820312,0.0023538962
BMgRh3,1.643,dft,jarvis_alex,,0.468901680737405,172.79105646656086,449.4839477539063,3.7526145
Cr4Rh2,6.375,dft,jarvis_alex,,0.5900049286493099,285.6497643923429,423.0390319824219,5.660646
LiPd,0.0,dft,jarvis_alex,,0.1867446987343736,190.29352708855484,303.0650329589844,1.1270223
InLi2Mg,0.473,dft,jarvis_alex,,0.3741733853845229,166.2080482217981,308.7304382324219,1.275225
AuPtTi6,3.507,dft,jarvis_alex,,0.5282083756054297,228.7328100820159,322.3990173339844,10.963432
CuInZr2,2.818,dft,jarvis_alex,,0.5766690429880297,135.47823311872878,313.4972229003906,2.7102857
AlHfOs2,0.085,dft,jarvis_alex,,0.2984834535113122,182.75321488472707,357.852294921875,2.7109725
HfOs2Zr,0.0,dft,jarvis_alex,,0.1058547267091825,225.24883455824693,335.5592041015625,0.62028754
CoH3Sc,1.007,dft,jarvis_alex,,0.3828663096666209,305.73336405789354,619.3421020507812,2.146003
CaP2Rh2,0.989,dft,jarvis_alex,,0.3897319276270082,269.91559191840247,434.78411865234375,3.2575643
As2Co2Rh2,0.153,dft,jarvis_alex,,0.3163461147322776,191.4142861598405,357.8459167480469,6.31142
Al2N2Zr4,0.237,dft,jarvis_alex,,0.3168745187232723,291.6069460838946,523.3196411132812,3.764512
AgBaH3,0.031,dft,jarvis_alex,,0.2524776909605455,501.9833289625847,291.7991638183594,0.08347822
HRh3Sb,0.11,dft,jarvis_alex,,0.3115814536660939,157.62554338518208,335.2616271972656,3.2228844
NPbY3,1.215,dft,jarvis_alex,,0.4321287288590799,187.80352738962293,330.3900146484375,2.2264404
Al4Sc2,0.001,dft,jarvis_alex,,0.2123608747237974,296.01755585107213,589.2601318359375,3.5272725
Au2MgY,1.543,dft,jarvis_alex,,0.5830999153926063,71.34840597164954,163.9152069091797,2.5674586
GaTaZn2,0.0,dft,jarvis_alex,,0.161318336240964,198.58949498429675,351.9476013183594,0.8721548
AlCu3,0.002,dft,jarvis_alex,,0.223384738374953,221.8448342552726,365.8428649902344,0.9217008
HfNaS2,5.36,dft,jarvis_alex,,0.826266301327002,101.4068075779062,354.35699462890625,1.7769997
ReTa,0.0,dft,jarvis_alex,,0.1835677122500618,228.858210478306,344.11065673828125,0.65991807
CLa3Sb,10.37,dft,jarvis_alex,,1.2457207956924243,99.36402381851394,261.8205261230469,4.3348527
CaLi2,0.0,dft,jarvis_alex,,0.2115068895957529,214.24465606647595,269.01666259765625,2.2014892
Ca2H2,0.0,dft,jarvis_alex,,0.2061171416707941,332.4387163812776,405.1436767578125,1.3961579
Al4Cu2Tc,4.187,dft,jarvis_alex,,0.5968564802569651,180.4479922909756,504.7598571777344,3.5361505
AlHfRh2,0.414,dft,jarvis_alex,,0.382622983517197,126.36034818115056,335.6817321777344,3.994761
InZr,0.201,dft,jarvis_alex,,0.3338171584587811,159.6650162412421,288.7424621582031,1.4950253
Al2FePt,0.0,dft,jarvis_alex,,0.140869335950226,229.2596366601991,447.0884094238281,1.1138139
MoNbRhTi,0.021,dft,jarvis_alex,,0.2581740720936603,253.7071275023204,409.9380187988281,2.637341
B2Li2,0.0,dft,jarvis_alex,,0.2045037425704833,462.6548570023247,858.7744140625,0.62109566
Al2LiNi3,0.0,dft,jarvis_alex,,0.188237000195975,249.85386465664345,456.4695129394531,1.7964462
AlCuRhTi,1.511,dft,jarvis_alex,,0.4691621881490329,158.6430026684743,390.5595397949219,4.161833
H3NiSr,0.0,dft,jarvis_alex,,0.1675010192270928,686.8332247942839,441.1907043457031,1.8721571
H2Hf2Os,0.0,dft,jarvis_alex,,0.1687837377114551,222.967282917386,308.9092712402344,0.51367444
Be4ReZr,1.742,dft,jarvis_alex,,0.4251925703780009,292.4883533583113,599.933349609375,3.884238
HfRh2Zn,0.0,dft,jarvis_alex,,0.1359129947787193,181.69968852105828,294.6682434082031,1.8857472
Ga2RhRu,0.003,dft,jarvis_alex,,0.2326331987052032,189.5508403890167,418.1020812988281,1.3276827
AlMgPd2,0.084,dft,jarvis_alex,,0.3042899601962291,150.63431548870196,302.7167663574219,2.2671149
NbRe2Ta,0.001,dft,jarvis_alex,,0.2151210056260172,239.24591784744345,344.5881042480469,1.10789
Be2NiRh,0.0,dft,jarvis_alex,,0.1443135285977412,318.1983867923529,542.7139282226562,1.4441406
Hf2Ni6,0.0,dft,jarvis_alex,,0.0945148919999718,225.22525458677865,373.4925842285156,4.9105334
F2LiPd,0.0,dft,jarvis_alex,,0.1880414296926139,246.61999094501115,427.7543640136719,0.7156674
Al2GaHf,0.003,dft,jarvis_alex,,0.2291144139014033,231.23619724666565,407.6081848144531,1.3574934
InLiSc2,0.0,dft,jarvis_alex,,0.1899150102395027,207.87939578400292,348.3876647949219,2.6388197
Ru2SiW,6.97,dft,jarvis_alex,,0.7694664559693498,154.34366752011957,465.5826416015625,3.410405
TiW2,1.824,dft,jarvis_alex,,0.4598142252746281,209.8081134816744,374.6363830566406,2.832337
CuMgScZn,0.183,dft,jarvis_alex,,0.3322674769944403,151.2181827801386,335.3436889648437,1.0745406
Tc2TiV,0.391,dft,jarvis_alex,,0.3369118647319106,289.3481245359291,456.8258056640625,2.3039575
FeGeTcV,0.211,dft,jarvis_alex,,0.3163403570772484,264.2786006399015,456.9786682128906,1.171813
NbW3,0.0,dft,jarvis_alex,,0.2104857208676656,228.5566368840614,349.1498413085937,1.4747367
Be4MgNi,0.0,dft,jarvis_alex,,0.1217750680898633,459.484255142002,802.0496826171875,0.5880537
NbPd,2.071,dft,jarvis_alex,,0.4784618352590158,200.2537052519885,383.8723449707031,1.4975983
HfOs3Zr2,0.0,dft,jarvis_alex,,0.1233761541792601,232.19591224235228,339.9817810058594,1.1097883
AlLaOY2,1.453,dft,jarvis_alex,,0.4682553495033075,153.66853322490962,343.9972229003906,2.2108316
ReRuTi2,0.261,dft,jarvis_alex,,0.3258036405515493,253.6010209087665,416.9549560546875,3.4476535
Al2C2Ti4,0.0,dft,jarvis_alex,,0.1858494874755556,415.6715021436796,706.8318481445312,2.5777154
Rh2SnY,0.008,dft,jarvis_alex,,0.2494488584732795,154.84740095846013,310.2022399902344,1.7006847
RuSiTcV,0.295,dft,jarvis_alex,,0.32765864271505,273.1705510620295,484.3442077636719,2.0146008
AlInTi2,0.004,dft,jarvis_alex,,0.2324916097672694,267.3036201812812,428.2300720214844,3.2376332
Al2LiNi,0.0,dft,jarvis_alex,,0.1990984076887419,338.3879105100479,549.8170166015625,1.1224177
MoRuTi2,2.597,dft,jarvis_alex,,0.4820809901219881,243.11587915958287,469.5500793457031,3.5942452
MnReTiW,0.0,dft,jarvis_alex,,0.206353938026059,285.2070947325982,414.7441101074219,3.1929789
OsRuScTi,0.053,dft,jarvis_alex,,0.2779071555752463,246.25586813792432,395.7453308105469,2.2789638
Ir2O6,11.134,dft,jarvis_alex,,0.622122297877992,423.65422311805,443.0377502441406,1.8117173
Fe2HfZr,0.0,dft,jarvis_alex,,0.1637246623860363,250.93981132611708,366.1169738769531,1.1039584
HfRh3Ti2,6.515,dft,jarvis_alex,,0.7466357150555515,154.532728759129,336.1593933105469,7.5402226
Rh7Sn,0.543,dft,jarvis_alex,,0.3638614151200198,229.93289692702544,387.1632995605469,4.479865
HHf3Tl,2.038,dft,jarvis_alex,,0.519517627185109,140.8915063161491,267.6713562011719,3.2136908
Pt2RuZr,0.109,dft,jarvis_alex,,0.3038026210727703,197.705781875816,336.9280700683594,3.309234
Ca2GaLaN,1.183,dft,jarvis_alex,,0.5009104861601734,94.203481740663,334.9638061523437,6.252515
H2MoV2,1.29,dft,jarvis_alex,,0.3954135311722127,322.8137317448383,605.6163940429688,1.726097
KS2Zr,7.676,dft,jarvis_alex,,0.9272431409615614,116.62414478077363,351.5468444824219,2.9927332
CrNb2Tc,0.015,dft,jarvis_alex,,0.2503733950020688,272.95602494245844,373.1689453125,2.740852
ReTc5,17.197,dft,jarvis_alex,,1.1164000659445756,197.51256766995664,478.9505615234375,6.516159
HfRu2Ta,8.472,dft,jarvis_alex,,0.8386109981731078,157.17530005100332,341.2299194335937,3.1805189
MoTiV4,8.811,dft,jarvis_alex,,0.7538895833389955,204.54600768425928,356.2512512207031,12.863532
LuRu2Sc,0.805,dft,jarvis_alex,,0.4050350874894453,176.0143475804425,305.6310729980469,5.5398884
AlInZr6,4.853,dft,jarvis_alex,,0.6482144705146863,164.81177944462777,337.75274658203125,5.9769454
LiRh2Zr,0.296,dft,jarvis_alex,,0.353339430615973,153.4030454911808,337.3030700683594,2.006561
C2TaTi,4.154,dft,jarvis_alex,,0.47586923033962,409.7639017914028,597.6893310546875,1.4016057
RhZr3,5.557,dft,jarvis_alex,,0.7023843026098918,152.775411588416,266.1282653808594,4.331192
BOsRu2Zr,0.025,dft,jarvis_alex,,0.2628070088440382,228.41207593420663,498.9638977050781,3.4719696
LiScZn2,1.463,dft,jarvis_alex,,0.494193815261199,123.04266582263516,282.3210754394531,2.2957592
Ru2SbSc,0.0,dft,jarvis_alex,,0.0369079380624156,259.37322814617715,420.1102294921875,0.20823607
NiPt2Tc,0.098,dft,jarvis_alex,,0.2979395291182399,214.4542362498165,383.3920593261719,3.5719733
Al3BaZn2,1.333,dft,jarvis_alex,,0.43733146523847,194.48909726901343,301.7109069824219,2.674962
Ni4PdTa,0.0,dft,jarvis_alex,,0.1848485830546338,224.37136160449404,358.4318542480469,6.997413
H2Zr2,0.885,dft,jarvis_alex,,0.4131831068654178,172.74483854965658,286.2002868652344,1.5553975
Sc2Si2Zn2,0.048,dft,jarvis_alex,,0.2735934821901835,269.33191576226784,460.8257141113281,2.9997454
BRhRu2Zr,0.0,dft,jarvis_alex,,0.2082749462871148,244.71978276410144,497.6402282714844,1.5289097
Os2Pt2Rh2,1.985,dft,jarvis_alex,,0.4743204379547801,199.25475590684988,360.8205261230469,6.518702
CrTc2V3,0.302,dft,jarvis_alex,,0.3232400604195362,313.6837346216221,492.6255798339844,4.213729
MoNbTcTi,0.907,dft,jarvis_alex,,0.38730855271311,257.3838946617548,424.5810241699219,3.6146705
Al2RhTa,0.004,dft,jarvis_alex,,0.2358986122186414,213.75279766926303,429.8046569824219,0.7588651
PtRhRu,0.466,dft,jarvis_alex,,0.3525423999801956,245.68210468626623,376.0540466308594,3.2059975
AlRh7,0.795,dft,jarvis_alex,,0.3831315231185608,241.27944807034152,420.9085388183594,6.4382253
ReTaTcZr,0.037,dft,jarvis_alex,,0.2719441170286954,223.8974185992849,339.8472595214844,1.9789807
MgRhZn,0.006,dft,jarvis_alex,,0.245301466905798,142.2187307495105,340.6141662597656,1.1404076
Ti3Zn,2.811,dft,jarvis_alex,,0.4900836337447383,245.6783919295713,423.0125732421875,2.1355484
AlPdScZn,0.361,dft,jarvis_alex,,0.3685155366121803,140.04928021533453,324.69537353515625,1.7541708
TaW3,0.0,dft,jarvis_alex,,0.1934236583474648,213.03590044485,354.8565368652344,2.9001658
Ga2Nb4,1.841,dft,jarvis_alex,,0.4730429731078439,186.81179891077693,415.22412109375,3.7439873
Be2CoPt,0.0,dft,jarvis_alex,,0.1355466110118358,290.0263062648473,443.0866088867188,1.5233506
HInLiRh2,3.985,dft,jarvis_alex,,0.5417570787084712,236.219274303004,366.7247009277344,2.867678
Ca2H2Li,0.042,dft,jarvis_alex,,0.2680763097529576,302.580823795958,376.9181213378906,2.692944
MnV3,2.697,dft,jarvis_alex,,0.4687652177263055,284.7586055871094,493.9722595214844,3.8770921
ReV,0.226,dft,jarvis_alex,,0.3139708534201518,301.5562246973181,415.8938293457031,1.1381061
CoRuSc2,0.0,dft,jarvis_alex,,0.1762472393764734,243.0321246361544,399.2368469238281,2.7098515
Cr4Re2,13.15,dft,jarvis_alex,,0.8246839472582819,252.40083779800565,409.6832275390625,6.8267303
BCdRh3,1.899,dft,jarvis_alex,,0.4960991759023564,157.32358869670816,387.9378967285156,4.419345
Be3NiRh2,0.009,dft,jarvis_alex,,0.2418696535273053,296.54497174564364,527.958984375,3.4831269
Pt2Ru6,2.294,dft,jarvis_alex,,0.4671040938947932,246.3272610083181,423.6383666992188,8.742666
LiPt2Sc,0.042,dft,jarvis_alex,,0.2969968050203651,94.61838209111323,251.1381683349609,1.246127
InLa3N,0.487,dft,jarvis_alex,,0.3832492027597104,147.00414100331358,283.8078308105469,2.8268597
HZnZr3,1.548,dft,jarvis_alex,,0.4429842797889356,211.69368924986225,388.0318908691406,2.211446
PTeZr2,0.593,dft,jarvis_alex,,0.3815848549942225,184.09647822002,356.3606872558594,1.8318077
BeRh3,0.835,dft,jarvis_alex,,0.3829718103367382,253.73113584139125,482.461669921875,4.2806673
C2In2V4,0.061,dft,jarvis_alex,,0.2717919749057553,370.02837360225294,533.404052734375,5.281807
CoHRu2Ta,0.15,dft,jarvis_alex,,0.3020862020307039,287.2538609332732,418.4834289550781,3.7597528
OsReTa2,6.369,dft,jarvis_alex,,0.7419628960106157,153.7516561691401,340.2846984863281,2.2222307
AlSc2Zr,3.001,dft,jarvis_alex,,0.5422663547787878,177.88875083908513,376.2414855957031,3.8600543
Ni3Si,0.0,dft,jarvis_alex,,0.114564214391186,259.6464569798309,488.7506408691406,2.5221248
NbVW2,0.58,dft,jarvis_alex,,0.3702503634978668,218.40592561949376,346.14385986328125,3.2556894
MgRu2Ta,0.008,dft,jarvis_alex,,0.2456846904530716,206.9888963877393,361.7886047363281,2.9359553
Mg2PdPt,0.0,dft,jarvis_alex,,0.1292374670310016,165.42356428338584,299.2174377441406,1.0690583
AlHfRu2,0.046,dft,jarvis_alex,,0.2766392996413947,228.1451478581478,398.3166809082031,2.5522406
BeOs2V,1.881,dft,jarvis_alex,,0.4576552962418125,220.9520334902512,400.3165283203125,1.9171478
MgScSn2,0.671,dft,jarvis_alex,,0.4006453422153515,155.83509143384762,269.0659484863281,2.2304177
InReTi2,0.01,dft,jarvis_alex,,0.2458170984163417,249.8889169704038,332.7908020019531,1.4591405
Li2Sn2Y,0.041,dft,jarvis_alex,,0.2860465844253652,138.89548317783567,275.3980407714844,1.3595136
AuHPd3,0.011,dft,jarvis_alex,,0.2470941230663699,251.7171874332839,244.4291229248047,4.0512066
MoNb2W,0.206,dft,jarvis_alex,,0.3194799098215128,236.0371779876728,352.0167541503906,2.8879702
BC2Sc2,0.487,dft,jarvis_alex,,0.3259260281611786,471.00447320523534,666.3834838867188,1.9145643
MgSc3,1.234,dft,jarvis_alex,,0.4321124807724461,191.3557731486338,323.7587585449219,5.927559
LiOTlZr2,1.436,dft,jarvis_alex,,0.4540793642160922,174.62928892872225,367.3239135742188,2.3418436
AlOsRuTi,0.651,dft,jarvis_alex,,0.373483682102714,231.7688624344244,409.7072448730469,2.6838481
HfN2Ti,9.982,dft,jarvis_alex,,0.643875785527178,343.9384355743405,605.39208984375,1.804005
Ga2LiTi,0.504,dft,jarvis_alex,,0.3665139473423954,203.03192119861217,354.4591979980469,2.4668834
Ni2Ti6,12.818,dft,jarvis_alex,,1.0431973650729782,160.57482556304214,364.3657531738281,9.830456
Ni2Zn2,0.0,dft,jarvis_alex,,0.147997200939554,194.2309619934612,363.6943054199219,2.7279217
NbTaTiW,10.815,dft,jarvis_alex,,0.8889204948427227,179.11291389111148,325.5151672363281,7.1212006
OsRe3,4.352,dft,jarvis_alex,,0.5823016604143793,203.5879936841904,415.5729064941406,3.2251074
HfInRu2,0.196,dft,jarvis_alex,,0.3283430039708931,178.37945689085893,331.9360656738281,4.855143
NbRe2W,5.073,dft,jarvis_alex,,0.6077027732767283,207.8183934777477,373.869873046875,4.0651927
NbRuSiTc,0.001,dft,jarvis_alex,,0.2133604501020918,246.0147498142105,450.7658386230469,0.885193
Mo2NiRu,2.105,dft,jarvis_alex,,0.4599646982718845,242.2175784048148,451.8648986816406,2.3640714
Al4V2Y,0.09,dft,jarvis_alex,,0.2877332060862428,284.3243959669794,520.94482421875,4.299679
BeLiPtSi,2.513,dft,jarvis_alex,,0.4725754162051995,255.37556778211788,389.5408630371094,1.1952664
HSnV3,1.035,dft,jarvis_alex,,0.3992860536041523,245.01502587036669,432.5510559082031,1.814408
CdSc2Zn,0.044,dft,jarvis_alex,,0.2837181015050063,162.334584147169,300.9729919433594,3.5736983
HgLiOY2,0.921,dft,jarvis_alex,,0.4249698070913183,155.13145200248834,322.6172180175781,4.2422986
BeGaTi,0.308,dft,jarvis_alex,,0.3331013933836588,249.2641945000952,509.8797302246094,0.6735241
AlCo2Ga,0.0,dft,jarvis_alex,,0.1078473771360615,258.7182662983296,505.9098205566406,1.9857539
PdPtSc2,0.859,dft,jarvis_alex,,0.4427238483575584,117.80535117536816,264.3293762207031,2.765421
CClY2,0.145,dft,jarvis_alex,,0.3001670919684637,295.55220052957395,389.3445739746094,1.7256526
Be2PdPt,0.009,dft,jarvis_alex,,0.2423816073728016,276.842564463086,398.5618591308594,0.6825596
HInRh,0.26,dft,jarvis_alex,,0.3279293337940036,238.7349957843209,324.9356384277344,1.1191273