formula,Tc,tc_source,dataset,pressure_gpa,lambda,wlog,debye_temp,dos_ef
OTi6,2.557,dft,jarvis_alex,,0.4746936694946383,255.43363460215772,535.9081420898438,5.6164007
Mo2TiW,0.836,dft,jarvis_alex,,0.3846877976706398,247.25295283053927,410.3118591308594,3.5227618
Al2Ga,4.175,dft,jarvis_alex,,0.5876977040540646,188.7262214706081,417.4728088378906,1.0072021
AlLiMgRh,0.033,dft,jarvis_alex,,0.2690939633141707,228.91821009838048,422.1274108886719,1.6259264
MgNbRhRu,0.0,dft,jarvis_alex,,0.1091616361986735,239.38635044071972,387.4041748046875,1.0647625
Al5CoTi,0.01,dft,jarvis_alex,,0.2429267323069393,303.9963981267006,520.6773071289062,3.6055493
MoRhTi2,1.299,dft,jarvis_alex,,0.4122213346715743,257.76395266569847,434.52044677734375,2.1082015
C4Co2Sc2,0.0,dft,jarvis_alex,,0.1874676045591478,468.2133735727654,673.2137451171875,1.9630154
GaPd2Ti,1.702,dft,jarvis_alex,,0.4928376495517134,145.11205502527727,310.3669128417969,3.8060608
Pd2Tc,1.528,dft,jarvis_alex,,0.4392584723697842,218.5492119273845,358.0663757324219,2.6146727
MoNbReTa,0.009,dft,jarvis_alex,,0.243953154178717,241.52332724941184,372.5389709472656,1.6355195
RuTa2W,0.346,dft,jarvis_alex,,0.3470539964321771,204.283263285557,351.3858947753906,1.900713
AlMn2Ti3,1.99,dft,jarvis_alex,,0.4475881416967173,259.71946516064673,489.1487731933594,4.2327323
OsTaTiV,0.484,dft,jarvis_alex,,0.3529847738488543,252.93773421456552,348.62945556640625,3.9776933
Si2V2Zr2,0.153,dft,jarvis_alex,,0.3029884389277147,284.13345788937494,455.1360473632813,3.12178
TcW3,8.132,dft,jarvis_alex,,0.7407763114402101,197.43013815139324,393.7642211914063,2.5647361
LiOY2Zn,1.41,dft,jarvis_alex,,0.4501889510585193,178.60129211931826,409.6440124511719,3.9200697
FeHf3Tc2,0.133,dft,jarvis_alex,,0.3084624594545135,209.0229106032072,319.2503356933594,6.0870767
Pd2ScZn,0.0,dft,jarvis_alex,,0.1991567413482425,178.95887908672972,305.8078918457031,1.9894824
MnNb2,0.343,dft,jarvis_alex,,0.3372822166527872,251.87979581594672,396.7510070800781,1.9650205
HgOSc3,0.0,dft,jarvis_alex,,0.1758193465462481,295.3264318261546,375.9866638183594,2.3418832
RhSc2Zn,0.182,dft,jarvis_alex,,0.322532464555088,192.3781360415166,346.8669738769531,3.303853
Rh2SnY,0.237,dft,jarvis_alex,,0.3474759297690208,139.0409445018188,311.4642028808594,3.0362852
HfRhRuSc,0.0,dft,jarvis_alex,,0.1238773938667874,218.3299566154047,332.7937316894531,0.66813827
CCl2Ti2,0.0,dft,jarvis_alex,,0.1987590630914732,384.5280464458009,324.5093688964844,0.82089436
Be4HfRh,20.597,dft,jarvis_alex,,1.022283842492224,264.84652857178725,593.0345458984375,2.3094456
Os2RhW,1.624,dft,jarvis_alex,,0.4486204434518913,209.84903894121743,418.7036743164063,2.6006107
Mn2N4Na2,18.565,dft,jarvis_alex,,0.9001308817434219,297.48081371974195,437.8507385253906,5.0369496
PbTi2V,6.91,dft,jarvis_alex,,0.6842187905984939,203.02091374331823,302.879638671875,4.0996094
LaP2Ru2,5.627,dft,jarvis_alex,,0.736838503196101,136.82455473132407,381.1748046875,2.8878129
CrH,14.179,dft,jarvis_alex,,0.7765521783193287,306.8810848698316,798.4267578125,1.7042462
MgNbOsRu,0.235,dft,jarvis_alex,,0.3293601213795585,208.90684944251035,372.6405944824219,2.9145255
Pt2RhTa,0.165,dft,jarvis_alex,,0.3207586271545909,183.32886842066708,318.0368957519531,3.652784
H2Sc2,0.032,dft,jarvis_alex,,0.2618810049764259,312.9894622793743,488.3815002441406,3.733886
Al5FeZr,0.0,dft,jarvis_alex,,0.2058420229974978,307.6881500802079,519.7532348632812,2.656765
TaTi2Zn,9.247,dft,jarvis_alex,,0.8975179918594709,149.62509816642432,338.4994812011719,6.155788
Nb2RuTc,14.028,dft,jarvis_alex,,1.0978420695977502,163.84373513550054,413.8677673339844,3.2277822
Be3CuNi2,0.026,dft,jarvis_alex,,0.2549563314755506,365.1179561462652,550.5789794921875,1.4796758
LiRu2Ta,2.694,dft,jarvis_alex,,0.5294498469389207,174.0129561537528,337.4395751953125,3.5573416
Al2Zr6,5.725,dft,jarvis_alex,,0.677506434975962,172.71800704662218,355.4040222167969,11.78044
Al5Co2Ti,0.0,dft,jarvis_alex,,0.1531437713393252,336.1797736010816,626.55029296875,5.0449185
InScZr2,2.855,dft,jarvis_alex,,0.5414113769011679,170.40788151449038,324.090087890625,5.1555533
AlNbRuTc,0.139,dft,jarvis_alex,,0.3043023439696214,248.33313943881103,478.2492370605469,2.814529
LiMoPd2,0.161,dft,jarvis_alex,,0.3129001515432792,221.78950900925057,340.5860595703125,2.2654982
Ru2ScTi,0.001,dft,jarvis_alex,,0.2149438545802674,261.52030494685715,454.33782958984375,2.6835513
CGaNb2,0.203,dft,jarvis_alex,,0.3154612931364153,259.1305797003984,534.4346923828125,1.3671114
CoNiZn2,0.0,dft,jarvis_alex,,0.084801323959492,212.37642716515165,401.8731384277344,2.0767314
AlRu2Sn,0.001,dft,jarvis_alex,,0.2162102275667226,216.45585077982545,425.8357543945313,1.7697616
CaFe2P2,0.0,dft,jarvis_alex,,0.2008716696380325,321.2978938874534,535.4197998046875,1.986609
Nb2PdRh,3.375,dft,jarvis_alex,,0.5446941486799654,197.32329588451563,392.3253173828125,3.0617278
BiZr2,0.572,dft,jarvis_alex,,0.3852278446818895,167.6610960416927,239.0617828369141,2.9537427
Mo2TaTi,5.712,dft,jarvis_alex,,0.6306302868782091,209.34204538538367,387.4608459472656,5.045082
CoHNbRu2,0.239,dft,jarvis_alex,,0.3169860532965293,292.7798117899986,462.6015930175781,3.7728858
Rh2SrZn3,0.003,dft,jarvis_alex,,0.2381452494470542,132.0591227653296,291.7838439941406,0.7006398
CrNb2Os,0.289,dft,jarvis_alex,,0.328957408396428,258.8425756398899,378.4013366699219,2.1484506
NiOsRh6,0.527,dft,jarvis_alex,,0.3577081320927525,251.0861198979026,441.3854675292969,7.8559117
AlMoZr2,3.487,dft,jarvis_alex,,0.5688904485350034,175.45311422128938,350.9080505371094,3.046116
CrNbOsTa,0.0,dft,jarvis_alex,,0.2074280284532265,263.06890506844854,347.7587585449219,2.7524965
P2Zr4,0.203,dft,jarvis_alex,,0.3146216003140821,266.6723462361637,418.47357177734375,3.2508147
H2MnTi2,0.488,dft,jarvis_alex,,0.3477061522875733,283.81806240082807,476.1546936035156,1.8202999
Rh7Zn,1.291,dft,jarvis_alex,,0.4205289898217475,230.462618618079,421.5222473144531,7.960877
Ge2Li3Mg2,0.2,dft,jarvis_alex,,0.3227497087408703,210.2174512338248,412.6669006347656,2.677775
GaNbPd,0.016,dft,jarvis_alex,,0.257011903282891,196.45606957733887,327.4446716308594,0.9379206
NbRuV2,0.417,dft,jarvis_alex,,0.3401823418756987,286.42318632171947,444.3070373535156,2.5287404
Rh7Ta,0.581,dft,jarvis_alex,,0.3629747869637366,249.9893644136469,471.5231018066406,7.857049
Os2TiZr,0.0,dft,jarvis_alex,,0.1301188148281108,260.48729718497066,378.9947204589844,0.9059827
AlGaMg,0.155,dft,jarvis_alex,,0.3167798130496526,191.35354557973085,361.8275451660156,0.5265114
GaMgPt2,0.004,dft,jarvis_alex,,0.2411770241698311,129.47606988512095,294.0306701660156,0.9988418
Ni2Si2Zr,0.017,dft,jarvis_alex,,0.2533720006898423,257.2997506847595,494.9266357421875,2.893209
Be2NiRh,0.0,dft,jarvis_alex,,0.141775177423568,307.2719222863784,542.6409912109375,1.3564339
HgMgPd2,0.037,dft,jarvis_alex,,0.2965900370938174,85.09416620041716,226.5580291748047,0.8162643
MoRhRu2,3.712,dft,jarvis_alex,,0.5300115130721261,239.63894297022927,474.6505737304688,3.5845263
CInSc3,0.0,dft,jarvis_alex,,0.1223476504479772,301.0409981955832,522.1923828125,0.26193953
CHf4N3,12.514,dft,jarvis_alex,,0.987762123740155,169.8938580213101,416.2788391113281,1.5057191
HRhRu2V,2.633,dft,jarvis_alex,,0.4788556383009456,252.8501383032668,472.2928161621094,3.0795255
HfN,10.266,dft,jarvis_alex,,0.6918740418365673,291.42307503328885,423.9519348144531,0.6966903
HfIn2Zr,0.133,dft,jarvis_alex,,0.320352387164915,148.5875819677966,275.1274108886719,2.5379004
LiOPtY2,0.573,dft,jarvis_alex,,0.3788284032933904,185.9528230168845,332.356689453125,2.7961912
OsReV2,2.757,dft,jarvis_alex,,0.4815841305804311,259.06904370146395,414.5231628417969,3.34373
AlHf2Sc,1.281,dft,jarvis_alex,,0.4472865182224502,167.51617641707713,315.9924621582031,4.0742826
Ga2Sc2,0.063,dft,jarvis_alex,,0.2928747956342888,163.57146132127056,352.6871643066406,1.706225
CSeTi2,0.0,dft,jarvis_alex,,0.126424724148741,429.0946858536768,547.183349609375,0.6637299
H5Sc2Tc,0.0,dft,jarvis_alex,,0.1630108928450753,396.6441779274258,628.1204833984375,1.084104
AuMoZr2,2.046,dft,jarvis_alex,,0.5011992869954274,162.9801237191883,270.1003112792969,3.341607
Ni2PtSb,0.828,dft,jarvis_alex,,0.4353803325170411,123.45797741159296,264.26513671875,2.541521
Be4CoSi,0.388,dft,jarvis_alex,,0.3237368645636727,396.8867030394805,915.6423950195312,1.4026284
AlHfLiRh,1.242,dft,jarvis_alex,,0.4339650366529131,187.9735360157021,327.1000366210937,3.9065592
Pt2Rh,1.099,dft,jarvis_alex,,0.4310042338868756,172.51534306323362,306.8661804199219,5.9976897
Al5CoZr,0.006,dft,jarvis_alex,,0.2349455543308426,295.78825893069506,517.9957275390625,3.051726
ReTiW,0.026,dft,jarvis_alex,,0.2625780139007733,244.10452989286247,376.3174133300781,2.0210283
MnRuSiV,0.033,dft,jarvis_alex,,0.2637676916032443,296.0760131576074,521.3316650390625,1.443479
As4Ti4,0.196,dft,jarvis_alex,,0.3180456308852976,234.0312499188811,426.562255859375,5.297358
Ga2GeLu,3.579,dft,jarvis_alex,,0.6323827452727938,130.04155046169598,258.5988464355469,2.236994
Mg2Rh3Sb,0.0,dft,jarvis_alex,,0.1821492460717599,185.3000382391316,328.828857421875,2.700305
OsRhSc2,0.002,dft,jarvis_alex,,0.2229345583236715,218.6126116815317,350.4508972167969,1.5011437
NbTaW2,0.21,dft,jarvis_alex,,0.3261159331191214,201.69169289683,343.65484619140625,3.0658076
HfRuTcTi,0.072,dft,jarvis_alex,,0.2856349737072248,247.1627026967616,384.2571105957031,1.663994
LiMgRuSn,0.064,dft,jarvis_alex,,0.2917281346622114,174.63563477902855,330.80059814453125,2.116993
AgRhSc2,0.092,dft,jarvis_alex,,0.305341380671349,158.21223636321332,272.9751281738281,2.928537
FeLaSi3,0.117,dft,jarvis_alex,,0.2942382246129713,291.52834817800067,428.9572448730469,2.6135461
Na2Si2,0.279,dft,jarvis_alex,,0.341428028227176,186.02349595359144,354.8819885253906,-0.0435162
Cu4ZnZr,0.0,dft,jarvis_alex,,0.1858793360761206,179.22304739358742,332.09197998046875,0.8922104
AlLiPdPt,0.0,dft,jarvis_alex,,0.187910403294492,181.97263935003312,314.0682067871094,1.5708867
CInSc2Zr,0.0,dft,jarvis_alex,,0.1852057957659174,294.8180818579462,497.1028747558594,2.256669
HfNbTc,0.185,dft,jarvis_alex,,0.3186145936193251,216.88043569355656,325.8821105957031,2.4889097
B2CCaPt2,0.043,dft,jarvis_alex,,0.268294755513299,306.58822265387346,359.07635498046875,0.65771526
C2Fe2La,0.452,dft,jarvis_alex,,0.3359383124462269,341.685495565435,465.9705810546875,4.10767
HHf2HgZr,0.31,dft,jarvis_alex,,0.3470626675262906,182.97952710357987,288.2275085449219,1.357862
Hf2RhRu,1.376,dft,jarvis_alex,,0.4538741324964431,168.31924564923838,277.9759521484375,2.8064556
Al3CdSr,0.002,dft,jarvis_alex,,0.2245038691358443,193.8956756322019,307.0631408691406,1.2708713
Be2CoPd,0.0,dft,jarvis_alex,,0.1806275862680398,331.3746288387587,522.6942749023438,0.8763389
Nb2TaW,4.942,dft,jarvis_alex,,0.6409510656248604,172.74109339735594,277.3046264648437,4.352626
OsReSiV,2.855,dft,jarvis_alex,,0.502968429807552,224.4347296065015,423.3369445800781,2.9196146
Mg2Pd6,0.062,dft,jarvis_alex,,0.2966728061340168,142.4712949561006,276.6546325683594,10.335878
TaTc2W,5.349,dft,jarvis_alex,,0.6225635391974697,203.7584123696947,394.8030700683594,2.3845682
LuRu2Ta,0.0,dft,jarvis_alex,,0.1264061523260614,215.15507206935047,326.1642150878906,2.1614172
Ni2PdSn,0.0,dft,jarvis_alex,,0.1198501342258172,184.3353131767798,318.1311950683594,2.9931653
HPdRh2Sn,0.027,dft,jarvis_alex,,0.26807408548773,192.3314938402117,326.2741394042969,4.031009
Sc2Zr4,4.301,dft,jarvis_alex,,0.6129926223124118,171.37958707168733,300.0289611816406,8.340875
HfScTc4,15.061,dft,jarvis_alex,,1.2334304911206917,148.75416215270002,326.7270812988281,9.338388
Mn2NbTa,0.0,dft,jarvis_alex,,0.1951155812597802,288.0566248404016,376.9700622558594,1.016575
PdRh2Zr,0.095,dft,jarvis_alex,,0.297101848339359,214.2529480015621,382.1065979003906,5.226705
MoNbW,0.04,dft,jarvis_alex,,0.2719020538841462,238.7333723694628,354.3914489746094,1.6785082
CuRh7,1.907,dft,jarvis_alex,,0.4566848988383317,226.8487880121808,412.7406311035156,10.507378
CrV2W,1.503,dft,jarvis_alex,,0.425245252395664,252.47766653325127,460.9976501464844,3.6020188
GaMoTi2,0.246,dft,jarvis_alex,,0.3254521093039869,240.7507422885052,352.80010986328125,2.7079244
Be2PdRh,0.0,dft,jarvis_alex,,0.1544271458837344,298.2733175714195,489.4379577636719,1.1581069
CSc3Tl,0.0,dft,jarvis_alex,,0.1253136088764279,279.80124151796844,441.3721618652344,0.19477946
RuSi2Tc,3.44,dft,jarvis_alex,,0.517697867889753,241.78351392290048,491.5299377441406,2.097391
CaLi2Sn,0.0,dft,jarvis_alex,,0.1210873835731466,208.01591610475325,321.4549865722656,0.10860034
C2Cd2Zr4,0.936,dft,jarvis_alex,,0.429527622921786,149.1503327544399,399.2164611816406,4.201888
HRh3Sn,0.091,dft,jarvis_alex,,0.2943899857340638,226.42155852526344,353.2361145019531,2.5245473
HgTcTi2,1.108,dft,jarvis_alex,,0.4214178869340172,195.01027997586723,315.6004638671875,3.2084422
HfNbTc2,0.06,dft,jarvis_alex,,0.2814721779563513,241.6499907696672,365.8037109375,4.227554
VW3,0.0,dft,jarvis_alex,,0.202146685819167,250.7709058365504,363.9715270996094,2.0584402
OsSi2Tc,3.067,dft,jarvis_alex,,0.5069344338498049,233.65473430440323,404.2717895507813,1.9864222
Mo3Nb,0.065,dft,jarvis_alex,,0.2807252845062779,268.9732115606426,398.4045715332031,2.0079741
NbPdTa,5.537,dft,jarvis_alex,,0.8522514646493927,98.5063967392976,338.5529479980469,3.6698675
MgNbRu2,0.019,dft,jarvis_alex,,0.2585370775255443,221.2590424584453,383.9563293457031,3.5950603
GaHTiZr2,4.231,dft,jarvis_alex,,0.5659048563519175,216.11063557225827,414.8081970214844,3.246281
Cu6Pt2,0.0,dft,jarvis_alex,,0.1157436957226148,183.73776493365827,294.7674865722656,1.8317456
PtRh3,0.696,dft,jarvis_alex,,0.37941149449653,224.1270559499685,399.89984130859375,6.173106
CaNSnY2,0.032,dft,jarvis_alex,,0.2699741544789797,210.5613783815475,366.0509948730469,1.916754
CoNbRh2,0.011,dft,jarvis_alex,,0.247000855025067,256.80022929765994,483.0338439941406,3.3399904
N3Nb3,0.0,dft,jarvis_alex,,0.1573649065532348,419.8481702571414,651.195068359375,0.65275806
AlMgRh2,0.0,dft,jarvis_alex,,0.1133063444314235,241.04793379428563,459.3247375488281,1.6789366
Mn2TiV,0.097,dft,jarvis_alex,,0.2870068082450203,315.49278784269774,534.3701782226562,2.195346
AlGeRu2,1.635,dft,jarvis_alex,,0.4708626882837236,168.9891966972616,455.3039245605469,3.5867283
CuS2,0.476,dft,jarvis_alex,,0.3681043806535708,186.0839084040537,272.9586181640625,1.5197295
AlCSc3,0.0,dft,jarvis_alex,,0.1481698951295378,319.7247111564682,637.8026123046875,0.37923694
LiNi2P2Sr,2.015,dft,jarvis_alex,,0.4749078151543713,200.65276735645503,400.74847412109375,3.9790444
C4Ni2Sc2,2.229,dft,jarvis_alex,,0.4186544505064548,406.1574192049468,624.8319091796875,3.813025
P2Ru2Sc,0.793,dft,jarvis_alex,,0.3856530275219857,230.6759267374993,502.4090881347656,2.2444544
Hf2ReRu,0.023,dft,jarvis_alex,,0.2637604745595318,202.2628093410416,312.8284606933594,3.2622545
MoReVW,0.539,dft,jarvis_alex,,0.3552388971786693,269.07550249349146,386.7844848632813,3.0898285
HInScZr2,0.596,dft,jarvis_alex,,0.3704714770668698,223.24513035546173,399.7104797363281,3.1764088
H2HfSn,0.43,dft,jarvis_alex,,0.3709393937668987,159.5462243068954,272.8526306152344,0.71257675
Mo5V3,0.118,dft,jarvis_alex,,0.2959005658226991,276.9158226519689,444.2661437988281,3.916215
AgAl2Li,0.333,dft,jarvis_alex,,0.3379532033430114,240.1829964130589,355.3331604003906,1.566432
BaCaTl2,1.236,dft,jarvis_alex,,0.5678028808562312,62.42656835200312,160.970947265625,0.45444736
Be4IrTa,11.567,dft,jarvis_alex,,0.7683658742843564,255.6671822341808,582.532470703125,3.9993904
PdReTi2,0.355,dft,jarvis_alex,,0.3481741613340678,204.6631053127596,336.2877502441406,2.77105
NTaTi,0.035,dft,jarvis_alex,,0.2643240648909356,303.6647332648607,451.77142333984375,1.1407883
Ta2TiW,8.648,dft,jarvis_alex,,0.7956736416624095,178.5886984117577,331.93994140625,6.536761
Al2CHV6,10.026,dft,jarvis_alex,,0.8658198669347338,172.88164019108189,565.244140625,6.0793653
GaLiRhSc,2.909,dft,jarvis_alex,,0.5226915709100417,196.9474865997182,344.55078125,3.4829183
HfTc2Zr,1.067,dft,jarvis_alex,,0.4121459492924606,211.9812570597965,327.6169738769531,3.9427497
Be4ReW,0.04,dft,jarvis_alex,,0.2660489639735311,317.9804293586821,594.96044921875,1.1014028
CuRuScZr,0.987,dft,jarvis_alex,,0.4207040820497054,175.4787505781382,324.6285400390625,3.2758613
In2Zr4,2.944,dft,jarvis_alex,,0.5610487824061007,155.39728415742275,309.61456298828125,8.376215
Li2PdTl,0.644,dft,jarvis_alex,,0.4333568261969528,98.10447483991906,175.9713592529297,1.3129623
MoW2,0.485,dft,jarvis_alex,,0.3571865518755552,233.2707248074685,372.0377807617188,1.6907665
CSbTi2,5.915,dft,jarvis_alex,,0.6411348413639865,205.8234656927956,515.2825317382812,2.7729023
MoPt3,0.396,dft,jarvis_alex,,0.357017075403288,190.8343781120515,322.2065734863281,3.039393
N2Ti4,0.126,dft,jarvis_alex,,0.2938048875265797,318.9181083320796,661.6595458984375,2.5456004
Cr2N2Nb2,1.466,dft,jarvis_alex,,0.4006598884579191,340.3421250603895,669.5859985351562,2.194746
LuRu2Zr,0.0,dft,jarvis_alex,,0.1729428711337128,200.83168730306764,318.1872863769531,2.0667338
Pt6Ti2,0.074,dft,jarvis_alex,,0.2966201735249304,170.86565017038072,310.9635925292969,2.7991717
Al2CuRu,0.208,dft,jarvis_alex,,0.3218125099117339,223.8788469055527,450.12603759765625,2.111721
Os2ScZr,0.003,dft,jarvis_alex,,0.2286126083948961,211.9134706795257,342.2050476074219,2.4445662
LiRh2Zr,0.0,dft,jarvis_alex,,0.2018532655158341,187.8390635371041,317.6596374511719,2.1088867
NbTiZn2,0.455,dft,jarvis_alex,,0.3564269093839718,221.99772009810803,383.277099609375,2.2185717
Hg2MgY,0.056,dft,jarvis_alex,,0.3031616346890211,103.11898829477964,183.6736602783203,1.5332433
GaOsRuV,0.039,dft,jarvis_alex,,0.2710552289975135,245.8663016796608,437.5901184082031,1.2513001
O2PdRh,0.0,dft,jarvis_alex,,0.1393167666384325,231.7225270057389,371.9311828613281,1.0358475
CaCd2Y,0.06,dft,jarvis_alex,,0.3016771563676882,116.53581222574776,242.5491485595703,3.9573593
Rh7V,0.985,dft,jarvis_alex,,0.3930224131071705,256.3414662469658,510.0962829589844,8.216517
NiPTc,1.751,dft,jarvis_alex,,0.4560336014574147,208.90158279521725,439.3341979980469,2.2595093
P2Ti4,0.733,dft,jarvis_alex,,0.3625136581016538,317.9925611640346,606.484619140625,3.402646
CSc2Te,0.055,dft,jarvis_alex,,0.2757743110540498,282.2099400480263,448.8418884277344,0.7328702
Os2Tc6,8.166,dft,jarvis_alex,,0.6913347485613809,234.3220256210853,485.3471374511719,9.882974
GaRuSc2,0.039,dft,jarvis_alex,,0.2761994673219884,194.0451499610924,327.8867492675781,1.9335359
Nb6RhW,7.289,dft,jarvis_alex,,0.7028796303658725,200.4602770593645,386.6644592285156,8.071614
AsS3Sc4,2.811,dft,jarvis_alex,,0.5020528350412728,222.6729485785745,469.1228332519531,3.516731
AlInZr2,0.137,dft,jarvis_alex,,0.3110630604635616,199.5352003081085,362.0880432128906,3.189034
LiS2Ti,4.316,dft,jarvis_alex,,0.6097437447161366,174.07923747578027,511.49517822265625,2.3260674
Sc2TcZn,0.506,dft,jarvis_alex,,0.3707992124332649,188.4629290742606,323.88311767578125,4.514814
Re3Ru,4.863,dft,jarvis_alex,,0.5983712229808216,208.79884520803537,429.1365661621094,3.0414193
Al2GaTc,0.001,dft,jarvis_alex,,0.2139721014302987,259.8620707742388,516.687744140625,0.9803068
Al2ScZn,0.001,dft,jarvis_alex,,0.2189177379550079,267.5614946958462,485.1968383789063,1.4461884
TcV,0.496,dft,jarvis_alex,,0.3440040650339468,313.4012662721421,468.5261535644531,1.3388467
CuTcZr2,0.882,dft,jarvis_alex,,0.4106723761890135,178.4880495558579,303.43798828125,3.0705445
CuPdZn2,0.038,dft,jarvis_alex,,0.2798343655500908,165.02539130013534,301.5939636230469,1.1958454
NiRh2Sn,0.579,dft,jarvis_alex,,0.4098949975390232,118.23138644517331,332.9983825683594,3.7057369
HgNTi3,0.408,dft,jarvis_alex,,0.3495217504798401,228.5723409417465,339.7091979980469,6.72997
HfNi2Pt,0.0,dft,jarvis_alex,,0.0706680083919829,176.40809682951178,337.19580078125,0.57920355
Mo2Ti3Zn,10.87,dft,jarvis_alex,,0.8438696023852106,198.78261360682512,431.8253479003906,6.9914517
CaNiSi3,0.519,dft,jarvis_alex,,0.3497322090808639,290.0416749628012,503.4817810058594,1.6095073
HInPd3,0.0,dft,jarvis_alex,,0.1038697153498189,243.32756303704403,245.02833557128903,0.43146417