formula,Tc,tc_source,dataset,pressure_gpa,lambda,wlog,debye_temp,dos_ef
AlCo2Sc,2.6775080259052195e-26,dft,jarvis_3d,,0.1086,328.303,,
Fe2Li4O7Si,1.2675651687578768e-06,dft,jarvis_3d,,0.1547,452.8375,,
O2Ti2,0.04233564107443119,dft,jarvis_3d,,0.2379,488.9518,,
OTi,1.1630217339237119e-13,dft,jarvis_3d,,0.1241,547.1528,,
CoO7P2,0.0,dft,jarvis_3d,,0.0902,467.6702,,
O4RhSb,3.579310431725862,dft,jarvis_3d,,0.595,137.4306,,
B2Rh2,0.0005664157932619534,dft,jarvis_3d,,0.1894,332.6579,,
B8Cr2,0.005061831501089367,dft,jarvis_3d,,0.2031,697.0036,,
B2Mo,13.793910600126491,dft,jarvis_3d,,3.3516,71.606,,
B2Mo,13.793581117003974,dft,jarvis_3d,,3.3514,71.6059,,
Be2GeTi,0.2537273941474449,dft,jarvis_3d,,0.2891,368.4772,,
Be2CuRh,0.31918144894053707,dft,jarvis_3d,,0.2986,352.8176,,
BeSe2Sr,2.840258127208541,dft,jarvis_3d,,0.6858,76.0324,,
Al2Li2,5.635780347446996,dft,jarvis_3d,,0.8401,99.8511,,
B2Y,4.417247635110187,dft,jarvis_3d,,0.4421,473.8459,,
Cr,3.552693357118437,dft,jarvis_3d,,0.4494,355.7263,,
O3VY,4.5236678441641685,dft,jarvis_3d,,1.0595,55.8774,,
Fe4S4,12.731096790032236,dft,jarvis_3d,,1.055,158.1645,,
CH2Y2,4.743855310844106,dft,jarvis_3d,,0.4607,429.2268,,
Fe2Sc4Si4,0.33089124916086554,dft,jarvis_3d,,0.3081,285.0889,,
Li4Si2,0.22963809228608137,dft,jarvis_3d,,0.301,237.8475,,
B6Mo2,0.01383223642595369,dft,jarvis_3d,,0.2175,579.8487,,
B4C2N2,19.406984582327393,dft,jarvis_3d,,0.5552,912.3626,,
Ba2O8Ti3Y,0.8910980051084976,dft,jarvis_3d,,0.3416,370.4762,,
MoO3Sr,0.3017447276755072,dft,jarvis_3d,,0.3012,310.8626,,
B2Ni2Ta2,0.23507770614022164,dft,jarvis_3d,,0.3043,223.174,,
N3TaZr2,2.193985539771781,dft,jarvis_3d,,0.4924,154.0031,,
B6Sr,0.004578940898567273,dft,jarvis_3d,,0.2027,654.5146,,
Si4Ti2,0.01905093467426468,dft,jarvis_3d,,0.2286,377.8391,,
C2I2Y2,6.48267543738288,dft,jarvis_3d,,0.8977,102.5157,,
GeO3Sn,9.755967188534566e-06,dft,jarvis_3d,,0.1705,95.0424,,
NbS2,8.700749948723281,dft,jarvis_2d,0 GPa,1.3793,79.1474,,
SbSe4Tl,2.173174617676088,dft,jarvis_2d,0 GPa,3.8382,10.7567,,
Hf3Te2,0.4986793852228559,dft,jarvis_2d,0 GPa,0.411,74.3094,,
Ni2Te2,1.2059671581855462,dft,jarvis_2d,0 GPa,0.5723,51.7596,,
AlI2Pd5,0.04614218025157938,dft,jarvis_2d,0 GPa,0.2732,112.7168,,
Se2Ta,3.908295509049538,dft,jarvis_2d,0 GPa,2.1177,25.361,,
B2Mg,13.60532322089235,dft,jarvis_2d,0 GPa,0.6175,472.2304,,
PTe2Zr2,0.0008964103708489679,dft,jarvis_2d,0 GPa,0.1944,296.727,,
K2S2Sn,4.8309528230892305,dft,jarvis_2d,0 GPa,1.0877,57.6287,,
Ca2H3,1.1749015145112547,dft,jarvis_2d,0 GPa,0.4243,150.9852,,
B4Mg2N2,7.943747230990274,dft,jarvis_2d,0 GPa,1.0145,104.1938,,
Cl2Zr2,0.19600494828050463,dft,jarvis_2d,0 GPa,0.315,142.7855,,
AuN2,8.83796584720032,dft,jarvis_2d,0 GPa,1.3756,80.6105,,
CoNb2S4,8.94966116520044,dft,jarvis_2d,0 GPa,0.8835,145.3271,,
PtTe2,0.008856974203283139,dft,jarvis_2d,0 GPa,0.2351,119.5049,,
In2Se4,4.234150127763928,dft,jarvis_2d,0 GPa,0.8,82.0838,,
Bi2Pt,1.9657416885544807,dft,jarvis_2d,0 GPa,0.7805,39.9639,,
K2Te2Y,3.9531572576657255e-13,dft,jarvis_2d,0 GPa,0.1275,81.048,,
NbO2,18.180697643497222,dft,jarvis_2d,0 GPa,1.599,144.491,,
N3W2,19.57066592748744,dft,jarvis_2d,0 GPa,1.4315,171.7161,,
Sb2Y,2.8530144301783733,dft,jarvis_2d,0 GPa,1.5784,22.9244,,
Se2Ti2,5.690757724823103,dft,jarvis_2d,0 GPa,1.3791,51.7741,,
Mo2N2,11.263153324282717,dft,jarvis_2d,0 GPa,1.1554,124.5063,,
C2Nb2,8.994673173936857,dft,jarvis_2d,0 GPa,0.7504,197.877,,
Ge2Te,0.8135384217895187,dft,jarvis_2d,0 GPa,0.4151,115.6702,,
C2Sc2,6.8073019720521,dft,jarvis_2d,0 GPa,0.9912,92.3237,,
H3Sr2,1.0840771994152556,dft,jarvis_2d,0 GPa,5.5873,4.8478,,
Hf2Se2Si2,1.1599210755747972e-05,dft,jarvis_2d,0 GPa,0.1659,276.405,,
Bi2O8Pd4,2.0100212493569605,dft,jarvis_2d,0 GPa,0.7834,40.5693,,
Ca2Sn2,0.6548620665617056,dft,jarvis_2d,0 GPa,0.5058,41.7724,,
In2S2,5.227945563645643,dft,jarvis_2d,0 GPa,0.7694,109.3343,,
Fe2Te2,3.9247480256609464,dft,jarvis_2d,0 GPa,0.7954,76.9257,,
Ba2Bi2Zn2,2.2906269511762467,dft,jarvis_2d,0 GPa,0.8766,37.6907,,
Hf2Te6,1.0631871110672042,dft,jarvis_2d,0 GPa,0.5384,55.032,,
Ni2SbTe2,0.0003896715634798479,dft,jarvis_2d,0 GPa,0.1992,78.1443,,
Te4W2,4.1959742717800745,dft,jarvis_2d,0 GPa,1.1208,48.1643,,
NZr,3.8053184609215758,dft,jarvis_2d,0 GPa,1.0515,47.489,,
B4C2Mg2,10.99436844651284,dft,jarvis_2d,0 GPa,0.5158,655.5428,,
LiS2Sn2,1.9486734509298083,dft,jarvis_2d,0 GPa,4.546,9.1687,,
AuSe2,5.274789344201265,dft,jarvis_2d,0 GPa,2.7117,29.9462,,
I2N2Ti2,0.004703320887203833,dft,jarvis_2d,0 GPa,0.209,384.2614,,
Br2Ca4Si2,1.9017940100763424,dft,jarvis_2d,0 GPa,1.6401,14.8002,,
Si2Sr3,1.1589576888378956,dft,jarvis_2d,0 GPa,0.7025,29.3733,,
C6Li,0.9694273191825061,dft,jarvis_2d,0 GPa,0.3214,609.8402,,
NbSe2,6.413595946651625,dft,jarvis_2d,0 GPa,3.2816,33.5627,,
BaO8Sn4,6.09278816179673,dft,jarvis_2d,0 GPa,1.4332,53.3988,,
BaSi2,4.666342554769355,dft,jarvis_2d,0 GPa,0.7552,101.3244,,
Br2C2Y2,6.4308121074076405,dft,jarvis_2d,0 GPa,0.9943,86.8218,,
S2Zr2,5.886975180931397,dft,jarvis_2d,0 GPa,0.7688,123.3085,,
Ge2Te2Zr2,0.14924392620486973,dft,jarvis_2d,0 GPa,0.3004,157.0925,,
Au2Cl2Te4,0.21559155058907098,dft,jarvis_2d,0 GPa,0.3501,76.7579,,
Bi2In2,1.203534436210757,dft,jarvis_2d,0 GPa,1.1069,14.0358,,
Se2V2,5.6761323000199875,dft,jarvis_2d,0 GPa,0.7828,114.7355,,
NaS4Sn2,9.918207235869994,dft,jarvis_2d,0 GPa,0.9497,143.4119,,
Br2O2Ti2,1.6424336356663543,dft,jarvis_2d,0 GPa,8.2307,6.8436,,
CNb2S2,3.437792811148454,dft,jarvis_2d,0 GPa,0.4606,311.3241,,
Cl2O2Ti2,9.893988341270626,dft,jarvis_2d,0 GPa,2.73,55.9931,,
Au2Ti2,0.3461608847367199,dft,jarvis_2d,0 GPa,0.3249,201.6512,,
Hf2Si2Te2,0.024574188233189843,dft,jarvis_2d,0 GPa,0.2433,213.6671,,
Ba2N,0.43993311246251465,dft,jarvis_2d,0 GPa,0.4212,58.4579,,
AgTe2Tl2,1.8312678491014067,dft,jarvis_2d,0 GPa,1.0814,22.0123,,
B4Mg2N2,22.659420255020724,dft,jarvis_2d,0 GPa,1.6874,172.3579,,
Fe2Se2,0.023184257310350728,dft,jarvis_2d,0 GPa,0.2392,249.6061,,
Ca2Si2,0.07499584421901627,dft,jarvis_2d,0 GPa,0.2739,178.7163,,
Te6Y2,0.019071918951467846,dft,jarvis_2d,0 GPa,0.2529,104.8579,,
Te4TiZr,3.0098363461713307,dft,jarvis_2d,0 GPa,0.6913,79.1069,,
Na2NbS2,1.2040944840925291e-08,dft,jarvis_2d,0 GPa,0.1435,199.2158,,
Bi2Pd,3.219739692452187,dft,jarvis_2d,0 GPa,1.9616,21.9465,,
BiSe2,0.5748043453652633,dft,jarvis_2d,0 GPa,0.4203,77.1337,,
Te2Ti,1.4325603597464958,dft,jarvis_2d,0 GPa,0.4582,132.4863,,
Se2Si2Zr2,1.6587426281126363e-05,dft,jarvis_2d,0 GPa,0.1667,335.7384,,
Hf2Si2Te2,0.02080734581615353,dft,jarvis_2d,0 GPa,0.2397,218.117,,
Ga2I2Y2,0.00034147232183481824,dft,jarvis_2d,0 GPa,0.192,147.8063,,
Fe2Se2,1.1584496851444155,dft,jarvis_2d,0 GPa,0.7263,27.2936,,
Br2O2Zr2,10.309742034500927,dft,jarvis_2d,0 GPa,0.8658,173.2673,,
Se4TiZr,4.019610913448728,dft,jarvis_2d,0 GPa,0.7576,86.7193,,
N2S2,1.6344787342700746,dft,jarvis_2d,0 GPa,0.5406,83.5092,,
Sb3Si,2.165791596905994,dft,jarvis_2d,0 GPa,2.8094,12.0958,,
NbS2,9.931273062594954,dft,jarvis_2d,0 GPa,1.0882,118.3996,,
BHMg,3.189391439872641,dft,jarvis_2d,0 GPa,0.4726,261.0549,,
S2Ta,6.939704703766398,dft,jarvis_2d,0 GPa,1.0122,91.3184,,
CS2Ta2,4.972666762415302,dft,jarvis_2d,0 GPa,0.5885,196.913,,
Ni2S2,1.7437542962731467,dft,jarvis_2d,0 GPa,0.4889,125.6304,,
Ag2Bi2O4,0.33036524690740665,dft,jarvis_2d,0 GPa,0.3695,85.5287,,
N2Pt,12.973017314710741,dft,jarvis_2d,0 GPa,0.8437,228.1044,,
CoS2,3.6759644461948735,dft,jarvis_2d,0 GPa,0.7688,76.9967,,
CoTe2,3.604564846973019,dft,jarvis_2d,0 GPa,1.1877,38.5515,,
NbTe2,4.4333360339968335,dft,jarvis_2d,0 GPa,1.6253,34.7588,,
B2N,10.775754376044357,dft,jarvis_2d,0 GPa,0.6934,281.2643,,
B5,6.048003018282739,dft,jarvis_2d,0 GPa,0.4465,622.1749,,
CaN2Ru2,1.7243757053848598,dft,jarvis_2d,0 GPa,12.3847,6.837,,
As3Si,6.311214258475328,dft,jarvis_2d,0 GPa,6.0478,27.7519,,
Bi2LaO4,6.467088616033936,dft,jarvis_2d,0 GPa,1.3875,58.4848,,
CY2,0.05911469477002166,dft,jarvis_2d,0 GPa,0.2561,282.2646,,
Cl2NSc2,0.007717884713314785,dft,jarvis_2d,0 GPa,0.2142,414.6969,,
Fe2Li2P2,0.3985892773066752,dft,jarvis_2d,0 GPa,0.3316,201.6731,,
BiSe2Tl2,0.0363322294206114,dft,jarvis_2d,0 GPa,0.2722,91.9819,,
AlCl2,0.32191395328903744,dft,jarvis_2d,0 GPa,0.3639,90.9473,,
IrTe2,2.4519145174909633,dft,jarvis_2d,0 GPa,0.8011,47.4095,,
Be2Li2,5.021714565221871,dft,jarvis_2d,0 GPa,1.4365,43.9157,,
BiPt2,1.821610404130968,dft,jarvis_2d,0 GPa,0.5644,81.4761,,
K2O2Y,1.2352315449976371e-14,dft,jarvis_2d,0 GPa,0.123,183.673,,
NbSe2,6.924080752622071,dft,jarvis_2d,0 GPa,0.8683,115.7927,,
NiTe2,3.5562903812242186,dft,jarvis_2d,0 GPa,0.8081,67.6457,,
TaTe2,1.736088461486676,dft,jarvis_2d,0 GPa,0.5491,84.4508,,
S2Tl,0.06067917010422534,dft,jarvis_2d,0 GPa,0.2746,141.0862,,
Se2Ti,5.330148305098743,dft,jarvis_2d,0 GPa,0.8101,100.9193,,
Ir2Ta2Te8,1.275438404081244,dft,jarvis_2d,0 GPa,0.6872,33.9827,,
Co2Se2,2.6496929056735063,dft,jarvis_2d,0 GPa,2.2201,16.7132,,
AuMg3,2.2161262262146013,dft,jarvis_2d,0 GPa,0.7892,44.0941,,
S2Si2Zr2,8.544472778448192,dft,jarvis_2d,0 GPa,0.9273,128.2317,,
Cl2H2Sc2,5.712892184142161e-09,dft,jarvis_2d,0 GPa,0.1408,306.4497,,
F,4.045810400734039,dft,jarvis_2d,0 GPa,0.5791,167.7645,,
PdTe2,1.4421482751720804,dft,jarvis_2d,0 GPa,0.682,39.106,,
Cl2H2Sc2,5.406851338991312e-06,dft,jarvis_2d,0 GPa,0.1629,245.3164,,
Fe2S2,0.09708376275681309,dft,jarvis_2d,0 GPa,0.2801,187.2382,,
Br2Ca2CuO2,1.1943039561065425e-08,dft,jarvis_2d,0 GPa,0.1439,167.6598,,
Na2NbSe2,8.989799774509203e-05,dft,jarvis_2d,0 GPa,0.1811,157.0875,,
PTe2Ti2,0.016228874948617685,dft,jarvis_2d,0 GPa,0.2288,317.9058,,
CuNb2S4,8.317575178618961,dft,jarvis_2d,0 GPa,1.5512,67.8401,,
C6Ca,1.6542528227438558,dft,jarvis_2d,0 GPa,0.582,67.6148,,
Br6Ru2,0.0022740557408785283,dft,jarvis_2d,0 GPa,0.2207,75.8348,,
C3N,13.70038446428572,dft,jarvis_2d,0 GPa,1.7681,100.526,,
Li4O,0.16149246040619702,dft,jarvis_2d,0 GPa,0.2975,184.0071,,
Se2Ta,4.981252277743906,dft,jarvis_2d,0 GPa,2.2654,31.0545,,
Cl2ORu,2.146900674063476e-32,dft,jarvis_2d,0 GPa,0.1052,295.7759,,
MgN2Sn2,0.4473162201586382,dft,jarvis_2d,0 GPa,0.3428,181.831,,
As2Co,8.207361861338402,dft,jarvis_2d,0 GPa,1.2894,80.0343,,
TaTe2,1.7511089997592608,dft,jarvis_2d,0 GPa,1.3604,16.1505,,
PbPt2,2.3493001832239404,dft,jarvis_2d,0 GPa,0.9685,32.9735,,
Br4H2Zr4,0.47153608687994564,dft,jarvis_2d,0 GPa,0.3509,165.5365,,
Si2Te2Zr2,0.00661127509107753,dft,jarvis_2d,0 GPa,0.2187,254.0222,,
Mo2Te4,1.2697416028439108,dft,jarvis_2d,0 GPa,0.4286,155.9346,,
SiTe2,3.9101929047854385,dft,jarvis_2d,0 GPa,0.8815,63.737,,
LiS4Ti2,0.020827492904656242,dft,jarvis_2d,0 GPa,0.2308,361.144,,
B13P2,31.748977584622637,dft,jarvis_2d,0 GPa,1.1352,358.6587,,
Bi2Ni,0.7240669408760981,dft,jarvis_2d,0 GPa,0.5194,42.1689,,
Br2Zr2,2.3440237968312237e-05,dft,jarvis_2d,0 GPa,0.1704,232.5857,,
B2O,7.167994863407259,dft,jarvis_2d,0 GPa,4.7692,33.297,,
Al4CO,3.5803676831497855,dft,jarvis_2d,0 GPa,0.6037,132.0704,,
B4,9.782322493033961,dft,jarvis_2d,0 GPa,0.5468,482.1314,,
C2I2Y2,3.5133956591057327,dft,jarvis_2d,0 GPa,0.5027,229.0027,,
CoO2,1.7465527553741984,dft,jarvis_2d,0 GPa,0.6132,61.7609,,
Cl2Ti,0.8140985489555985,dft,jarvis_2d,0 GPa,0.3861,165.8725,,
B3W2,1.4431735562692587,dft,jarvis_2d,0 GPa,0.369,376.4966,,
AgBa2P,0.16882769780379908,dft,jarvis_2d,0 GPa,0.3193,111.3422,,
Sb6Te6,0.0017091213844021267,dft,jarvis_2d,0 GPa,0.2137,95.4643,,
CSc2,0.037551255298187355,dft,jarvis_2d,0 GPa,0.2424,341.8436,,
N3W2,19.67154012094135,dft,jarvis_2d,0 GPa,1.226,202.8039,,
CrSb2,4.235402789975899,dft,jarvis_2d,0 GPa,0.8469,73.9733,,
N2Zr,4.0053740997799725,dft,jarvis_2d,0 GPa,0.6131,141.6983,,
S2Ta,4.847486720659882,dft,jarvis_2d,0 GPa,3.2503,25.4615,,
Bi2Se2,3.6917682787450614,dft,jarvis_2d,0 GPa,1.6092,29.1846,,
LiPdSi5,4.672279792439526,dft,jarvis_2d,0 GPa,2.3484,28.5456,,
CMo2,11.163661333436654,dft,jarvis_2d,0 GPa,1.9741,75.7722,,
AuTe2,4.642942787161304,dft,jarvis_2d,0 GPa,0.8381,82.6119,,
S2Ti,6.499812062856581,dft,jarvis_2d,0 GPa,0.6755,180.2473,,
NbTe2,6.215204352084032,dft,jarvis_2d,0 GPa,1.1157,71.7551,,
AsLi2Na,0.6301239577467787,dft,jarvis_2d,0 GPa,5.5981,2.8166,,
Cl4Pt2,1.8323285390478077,dft,jarvis_2d,0 GPa,0.9479,26.5719,,
Bi4I2Te2,4.738892914788137e-05,dft,jarvis_2d,0 GPa,0.1814,79.334,,
AlCoV6,9.75,dft,jarvis_alex,,0.7040903072500558,267.1234885418492,479.8471984863281,9.067489
CdMgSc2,0.003,dft,jarvis_alex,,0.2322128179041506,185.3307122803709,314.3353576660156,4.2968583
TiZnZr2,5.656,dft,jarvis_alex,,0.6559205906560949,186.0045589570739,331.5763854980469,5.0157933
OsRhTi2,2.635,dft,jarvis_alex,,0.5121728517305218,192.9109332455764,413.65521240234375,2.7133925
Rh2VZn,4.746,dft,jarvis_alex,,0.662572009099805,151.3114147175575,233.62991333007807,4.259584
Nb2ReTc,0.013,dft,jarvis_alex,,0.2490918691558478,262.42054098560027,384.3847351074219,1.8911586
InLiOTi2,0.782,dft,jarvis_alex,,0.3950734713691509,196.7028271706794,404.7413024902344,3.0640922
Al2CoOs,0.0,dft,jarvis_alex,,0.1697376926338747,238.3893198390535,464.2111511230469,2.481087
SSc,6.113,dft,jarvis_alex,,0.6381198495886536,216.55629065072785,477.20025634765625,1.4999522
Ge2Rh,7.407,dft,jarvis_alex,,0.9924757864530752,100.01767571936824,306.8603210449219,1.3705744
Fe2HfSi2,0.069,dft,jarvis_alex,,0.2875374707618707,218.2275307085216,463.4268493652344,3.5746832
HfInRu2,0.01,dft,jarvis_alex,,0.2488678300916375,196.28996537244072,334.7948913574219,3.924494
AuGaTi2,1.354,dft,jarvis_alex,,0.4370021585892556,198.18983066863345,276.2611999511719,5.348374
Cr4NbTi,0.78,dft,jarvis_alex,,0.3672586848122435,309.99771740794984,437.7533874511719,3.5273893
AlOsSc2,0.001,dft,jarvis_alex,,0.2155810332281591,257.3129102318262,361.7101745605469,1.7514701
LiSc2Tc,2.27,dft,jarvis_alex,,0.5064436205747052,173.40099597086655,367.3162841796875,3.68176
MoNiTi2,4.984,dft,jarvis_alex,,0.606589012548104,204.73375666892724,422.9392395019531,4.0460396
La2NPbSr,0.188,dft,jarvis_alex,,0.3357152788333446,142.58900864465377,261.646728515625,2.240271
Mo3Tc,13.959,dft,jarvis_alex,,0.944329348316166,208.5172198049405,437.2620544433594,3.2458405
B4Os2,6.332,dft,jarvis_alex,,0.615682774928232,247.57565293076948,629.4177856445312,3.153343
H5RuY2,2.901,dft,jarvis_alex,,0.5040705466024739,225.35000394575616,491.4344482421875,3.3341563
AlLiMoRu,0.0,dft,jarvis_alex,,0.1480814840345546,278.9326788868481,428.4719543457031,0.7446621
NbOsTaTc,5.496,dft,jarvis_alex,,0.6250731225164748,207.1015346890983,369.5917053222656,2.8873644
Mo2Nb,0.035,dft,jarvis_alex,,0.2663865312757186,270.47404867467634,412.6105651855469,1.1372384
RuTa2V,0.024,dft,jarvis_alex,,0.2605141248375392,256.02623434926903,317.3861694335937,2.1973503
OsRh3,1.51,dft,jarvis_alex,,0.4325136288671656,233.2447917260593,456.0851135253906,4.555695
COZr2,0.0,dft,jarvis_alex,,0.1999720494886486,395.64629455134894,608.5291748046875,0.68950194
Al2Ni3Zn,0.008,dft,jarvis_alex,,0.2461327424071269,198.06048894116103,463.3338317871094,2.7278495
BBeCo2,0.0,dft,jarvis_alex,,0.1561756167458567,393.729575061232,708.8138427734375,3.6110432
AuBe2Co,0.0,dft,jarvis_alex,,0.1611813776364296,298.7256996718954,409.2969055175781,1.3702599
H4Li2Ni,0.36,dft,jarvis_alex,,0.3043715572367779,641.0673403464592,545.5224609375,1.364479
BeCo2Ga,0.0,dft,jarvis_alex,,0.1422590962302884,271.72098474401275,534.0531005859375,2.4516776
MgNbOsRh,0.0,dft,jarvis_alex,,0.116074164859811,229.67758542244448,357.0800170898437,0.6467725
Be4NbRu,1.287,dft,jarvis_alex,,0.3858323900523079,373.2511691136449,655.7022094726562,1.957015
Ga3Y,2.355,dft,jarvis_alex,,0.5326561803423816,148.85417691500842,298.3778381347656,1.536459
InZr3,2.176,dft,jarvis_alex,,0.4992864718222315,176.38052776199922,311.4279479980469,3.631904
Cr4MoRe,24.831,dft,jarvis_alex,,1.726151542103189,164.7891036314412,436.4555358886719,9.1055565
Sb2Ti2,0.107,dft,jarvis_alex,,0.311780974548672,151.69122066235852,311.6484375,4.077455
TiV4W,6.996,dft,jarvis_alex,,0.6674734352578444,219.11743493855369,348.2295227050781,12.733279
Rh2ScY,0.0,dft,jarvis_alex,,0.1195704712585116,186.660096025494,303.2754821777344,1.5492452
AlCuPd2,0.075,dft,jarvis_alex,,0.3066485907075365,124.80706518503766,335.6287536621094,1.5789704
GeMnOsV,1.142,dft,jarvis_alex,,0.4080362283524343,239.43899355542865,408.6206970214844,2.2305243
H2Ta,8.216,dft,jarvis_alex,,0.8905790051805652,134.5610973650779,366.2210998535156,1.0142035
Fe2LaP2,0.247,dft,jarvis_alex,,0.3249021862117838,245.45930467693208,454.50201416015625,4.718771
FeOsTi2,0.0,dft,jarvis_alex,,0.1384466790268844,308.3278094150056,432.9726867675781,0.8140284
AlLiOSc2,0.0,dft,jarvis_alex,,0.1687690218261965,330.47251929467615,541.3051147460938,1.8232819
CaN2,2.433,dft,jarvis_alex,,0.4494760715228156,310.34560145956146,534.00634765625,1.6498888
Mo5Nb2V,0.172,dft,jarvis_alex,,0.3090241382842749,265.5067531705154,401.4702453613281,4.888026
MgPd2Pt,0.046,dft,jarvis_alex,,0.2852842557491341,159.67027235284823,282.0360412597656,5.0020356
Ti5Zn3,1.344,dft,jarvis_alex,,0.4369190277666271,196.8511454552268,376.44866943359375,6.8835588
GaTc2,0.742,dft,jarvis_alex,,0.3840648365319789,221.3982460886584,425.3244018554688,2.0389729
Cu2PdZn,0.0,dft,jarvis_alex,,0.1408152120226625,192.99865121722144,295.6719970703125,1.0366075
MgPdRhSn,1.514,dft,jarvis_alex,,0.5446810913109112,88.05336937371257,290.2767639160156,2.8884578
Pt6TcZn,0.293,dft,jarvis_alex,,0.3488113450907138,166.56352928665092,311.6537170410156,8.197904
Sc2Zr2,7.969,dft,jarvis_alex,,0.7890032733765928,167.90712185725275,301.32684326171875,5.1923084
CrTcV2,0.113,dft,jarvis_alex,,0.2901670688346682,326.49732982946205,500.03607177734375,3.1314309
HfTc2Ti,1.937,dft,jarvis_alex,,0.4599631833807787,222.7800785020619,352.5929260253906,4.0703087
GaTi2Zn,0.515,dft,jarvis_alex,,0.3607420535133909,231.03817530945705,407.7706604003906,4.225597
C2Ge2Ti4,0.022,dft,jarvis_alex,,0.2534099062083668,335.7106700048915,606.5353393554688,4.97835
MoNbOsTi,0.124,dft,jarvis_alex,,0.2995686726800618,258.7481842862201,400.3247680664063,2.1469414
C2Pb2Ti4,0.067,dft,jarvis_alex,,0.2785477256139108,302.9848600681893,388.8511352539063,4.744799
Nb6Pt2,15.002,dft,jarvis_alex,,1.3578086169995938,130.72893125081123,350.5271301269531,9.14813
AlPd7,0.002,dft,jarvis_alex,,0.226587875150741,165.11592940603475,287.5075378417969,10.463612
Fe2Nb4,15.455,dft,jarvis_alex,,1.058350709953067,191.2707672707233,374.1907653808594,4.9203496
LiNiRhSi,0.0,dft,jarvis_alex,,0.1667029419707993,270.7423763122448,481.4282531738281,1.5164073
AuMg2Rh,0.0,dft,jarvis_alex,,0.1377634388394424,167.52769569710313,258.5000305175781,1.163675
AlMg2Pd3,0.012,dft,jarvis_alex,,0.2560017160514512,159.41798265210554,305.6776428222656,2.1121104
PtZr2,1.297,dft,jarvis_alex,,0.4911993852879719,111.95383702468474,200.23931884765625,1.5875984
HgOScY2,0.184,dft,jarvis_alex,,0.3314838934346065,154.54799226375522,308.85675048828125,2.5570416
H2Mo2Os,8.466,dft,jarvis_alex,,0.7323465550584723,208.8273402470785,516.3500366210938,2.23271
HfP2Zr,0.0,dft,jarvis_alex,,0.159354255976528,252.8979134271608,425.5679321289063,0.8120019
CoReTi2,0.019,dft,jarvis_alex,,0.2557486319919607,261.8708422358517,428.2848205566406,1.8293635
GeLiPtRh,0.036,dft,jarvis_alex,,0.2798621009568992,154.43834898974328,330.5658264160156,1.3232303
HgMoTi2,2.29,dft,jarvis_alex,,0.4901887299209399,199.629706735551,343.5305480957031,3.663396
Rh3Sn,1.617,dft,jarvis_alex,,0.4676172248670345,172.6800231880855,353.5629577636719,4.36976
N2Sc3,0.0,dft,jarvis_alex,,0.1776349407684664,444.9254828591327,796.3963623046875,1.564604
Cu3Ge,0.059,dft,jarvis_alex,,0.2874951491852225,188.0031507046302,333.7928466796875,1.0959855
Mo2OsRh,4.703,dft,jarvis_alex,,0.5891706043682138,211.8431897706472,431.1947326660156,2.6763408
RuTc2Ti3,1.004,dft,jarvis_alex,,0.3923014508613946,263.90000936534244,435.5002746582031,5.976073
AlPtRh2,0.823,dft,jarvis_alex,,0.4063069365681439,176.72122576150855,352.1360778808594,3.13998
LiMg2Rh,0.004,dft,jarvis_alex,,0.2352374545593104,219.189940617275,370.7214965820313,1.5755101
Cu3,0.0,dft,jarvis_alex,,0.1202712972073778,222.7445579595856,345.2213134765625,0.8463909
N3Y4,0.144,dft,jarvis_alex,,0.2942126096410112,358.23648378801136,511.9823303222656,2.3254964