formula,Tc,tc_source,dataset,pressure_gpa,lambda,wlog,debye_temp,dos_ef
CoRhSc2,0.0,dft,jarvis_alex,,0.07552547466746,243.01628605708245,386.7999877929688,1.3668262
Os2Tc2,5.112,dft,jarvis_alex,,0.5773596978464137,245.85399936494525,492.1239013671875,2.8142555
NaS2Zr,7.683,dft,jarvis_alex,,0.9576042352330052,110.21967580715258,354.6267395019531,2.3338482
Al2Ti6,1.25,dft,jarvis_alex,,0.4049580788268707,273.64627016308924,497.2973327636719,6.283595
Be2Sc2Si2,0.084,dft,jarvis_alex,,0.2791052401853665,369.7775425075541,719.5384521484375,2.9908261
HHgPd3,0.072,dft,jarvis_alex,,0.2825669127323262,277.4942179430589,203.3620147705078,4.194567
Cr4NbW,18.813,dft,jarvis_alex,,1.1398712132462612,207.66582911676247,420.1979675292969,7.9618406
MoRhTaTi,0.0,dft,jarvis_alex,,0.2061147625486848,249.3912069294892,392.191162109375,2.315135
Al6GeW,1.487,dft,jarvis_alex,,0.4608616103394485,169.03249447852508,475.6635437011719,3.0077903
NbTiV4,15.961,dft,jarvis_alex,,1.4926845205377384,122.80306649384174,325.3212890625,12.888091
CrMnNb2,0.018,dft,jarvis_alex,,0.2526876963852691,281.9790337142824,418.1110534667969,4.039565
Al2LuZn,0.049,dft,jarvis_alex,,0.2807632706455337,200.54925019598053,357.7508850097656,1.6509786
BiLiRh2,0.056,dft,jarvis_alex,,0.2987534426139447,118.87842885682544,258.8393249511719,1.8898444
GeTc,0.226,dft,jarvis_alex,,0.3289456687639138,202.38955221866448,388.754638671875,0.62397325
PSbSc2,0.001,dft,jarvis_alex,,0.2166202638122723,242.8542811869181,421.451416015625,1.0028372
Al3CaZn,0.0,dft,jarvis_alex,,0.2103827699441913,231.3122821738613,379.2340698242188,1.2449663
Nb3W,5.252,dft,jarvis_alex,,0.6327667344702774,190.59511499794564,295.3367004394531,5.767296
Ga2PdTi3,0.358,dft,jarvis_alex,,0.3419577528631672,236.3092047715246,402.1210021972656,5.5666404
Rh2TcZn,0.959,dft,jarvis_alex,,0.4003027144451423,224.2243434117213,418.6814575195313,3.104153
Al5PdZr,2.019,dft,jarvis_alex,,0.4613673105553186,228.84301048993763,404.0652160644531,2.488727
AlNiRhSc,0.017,dft,jarvis_alex,,0.2619049406301775,169.31223961626847,427.6492919921875,2.536584
Mn4RuW,4.334,dft,jarvis_alex,,0.5288301058184751,281.58775531152924,459.4003601074219,3.2920234
CdInTi2,0.064,dft,jarvis_alex,,0.28614051975164,214.01946179185563,319.39825439453125,5.1259775
NbOsRu2,8.896,dft,jarvis_alex,,0.7604954039076607,203.42736178759768,441.7887573242188,5.5463505
N4Nb4,0.0,dft,jarvis_alex,,0.0688900740423571,496.1138407655652,752.9852294921875,-0.0507184
AlLiRhSi,1.417,dft,jarvis_alex,,0.4334213659065684,215.84237805128905,478.095703125,0.58542085
C2Ge2V4,1.327,dft,jarvis_alex,,0.3916750803816407,351.283698864464,572.7255249023438,4.72711
NiSbTi,0.484,dft,jarvis_alex,,0.3648421699460986,200.9534689137197,363.5546875,2.9678397
Al6NbTa,0.0,dft,jarvis_alex,,0.0990506667390924,324.71851955434823,549.2594604492188,1.2992454
MoW2,0.55,dft,jarvis_alex,,0.3618731235967367,241.71821480412012,380.8711242675781,1.4902709
La3NSb,4.254,dft,jarvis_alex,,0.6756066919176328,128.3641152504187,296.9171447753906,4.0319095
Nb2Ru3Sc,13.254,dft,jarvis_alex,,1.6164472978184292,93.4920794857812,392.7384338378906,3.9370165
Mg2Sn,0.0,dft,jarvis_alex,,0.2059213801989699,138.08070306359795,298.8511657714844,0.6202619
RhRuScY,0.0,dft,jarvis_alex,,0.126598840768016,203.34165513892023,302.2148132324219,2.0907283
B2Ir2,0.41,dft,jarvis_alex,,0.3450643780451045,252.64995105864696,476.7782287597656,1.3239461
CrOsTa2,0.0,dft,jarvis_alex,,0.177039022347614,245.85334646264656,333.405029296875,0.89074093
MgRhZnZr,1.86,dft,jarvis_alex,,0.5115540440514046,136.67987986871094,306.4106750488281,3.4432695
OsRuTi2,0.0,dft,jarvis_alex,,0.119365657613959,302.1278370850889,452.9265441894531,0.9279427
AgCa3N,0.001,dft,jarvis_alex,,0.2161266633349516,180.95286204740083,317.1883850097656,3.2541044
AlBeRh2,0.0,dft,jarvis_alex,,0.1362648082665854,282.3640880732709,514.6090698242188,1.1174638
Al2ScY,0.031,dft,jarvis_alex,,0.2740592168318138,168.14679011716325,414.5262145996094,1.1414667
AlOsRuSi,0.768,dft,jarvis_alex,,0.3889062627167451,212.37264812710768,469.22650146484375,2.4211295
AgAlLiY,0.0,dft,jarvis_alex,,0.1460981098555614,205.4072752418685,269.7606506347656,0.6274111
MoTa2Tc,0.011,dft,jarvis_alex,,0.2480076483887257,236.80189522238388,383.8017883300781,2.9236078
InNb2Zn,0.049,dft,jarvis_alex,,0.2826257558315851,187.2567723693578,323.3282165527344,1.9921154
GaOs2V,0.339,dft,jarvis_alex,,0.3421221973938412,223.11847111215343,409.9239807128906,1.5455457
Ga4Ti2Zr,0.597,dft,jarvis_alex,,0.3779723778524456,196.6053529713899,418.9338073730469,6.720989
Mn4OsV,8.267,dft,jarvis_alex,,0.6529082044671504,275.1190682587561,465.9914245605469,4.5905437
BeCu2,0.058,dft,jarvis_alex,,0.2779801218574524,268.8997464313495,480.27142333984375,0.823798
GaNb2Ta,0.619,dft,jarvis_alex,,0.376145359417636,210.5917980360561,330.8700866699219,2.5206504
NNi2RuZn,9.53,dft,jarvis_alex,,1.0126206358911816,124.19323794066652,453.8871765136719,2.9692683
Al5FeLu,0.003,dft,jarvis_alex,,0.2275773621958074,280.12913429392995,454.7548522949219,2.6728723
Ca2Fe2P2,0.005,dft,jarvis_alex,,0.235332247430825,268.09975238465466,455.8558654785156,6.0913205
Tc3Ti5,9.647,dft,jarvis_alex,,0.7675752108390341,215.38031476963167,416.3944396972656,10.005275
MnTcTi2,1.983,dft,jarvis_alex,,0.4430077718025446,272.01845494151075,415.0304565429688,3.9828007
Al2NiRu,0.0,dft,jarvis_alex,,0.1395497904000596,261.8495042981542,497.5405578613281,1.7894082
H2Rh2Tl,0.166,dft,jarvis_alex,,0.3149206390117715,215.1958460133948,337.6052551269531,1.2438815
HfRu2Sb,1.258,dft,jarvis_alex,,0.463662862554653,139.32756408673555,349.72564697265625,1.52496
InRuSc2,0.001,dft,jarvis_alex,,0.215645712370502,195.96346991234023,313.39263916015625,3.0355115
ScTi2Zn3,0.037,dft,jarvis_alex,,0.2775308168562007,175.92380849280488,385.91546630859375,5.944815
H2LaNRu,19.173,dft,jarvis_alex,,1.3765873022517563,161.7909271015883,479.5867614746094,3.692434
STlZr2,0.722,dft,jarvis_alex,,0.4049051838293218,157.7100361542016,253.7094268798828,1.7646962
Co2W4,4.536,dft,jarvis_alex,,0.6213991656577916,173.1009445669785,393.18743896484375,5.33526
LaN2Zr,1.628,dft,jarvis_alex,,0.4076110055255276,343.0522671544457,542.6209716796875,1.3438452
H2PtTi2,4.305,dft,jarvis_alex,,0.6106196125902346,172.55957087809676,408.2109680175781,5.1545906
Li2OsSi,0.535,dft,jarvis_alex,,0.3732717651663739,190.7932184836357,375.8960266113281,1.6122838
Ag2In2O4,0.0,dft,jarvis_alex,,0.0331976722933496,306.01325245506666,287.8475952148437,0.0
InLa3,9.816,dft,jarvis_alex,,2.055014252518589,55.46197155458914,138.43617248535156,6.0851808
HfLuRu2,0.0,dft,jarvis_alex,,0.1705068681608753,190.8143815454716,297.3469543457031,2.2755303
Os2TaZn,0.201,dft,jarvis_alex,,0.3355982466337891,153.23375926737623,339.5191955566406,3.1903086
AuGa2Ti3,0.326,dft,jarvis_alex,,0.3430316717993609,209.9398732222084,335.3164367675781,6.630867
NbNi2P2,0.592,dft,jarvis_alex,,0.3689149457377395,228.1815921638515,460.1145324707031,3.794852
MnRhSiTi,0.0,dft,jarvis_alex,,0.0674759749481676,324.782214299911,498.5498962402344,0.018558
CuNiSc2,1.335,dft,jarvis_alex,,0.4760321075329292,131.56498011118092,361.7973327636719,3.3151743
CdTlY2,0.005,dft,jarvis_alex,,0.2463440776487607,117.21192220356932,196.1646881103516,4.27724
AlRh2Ta,0.935,dft,jarvis_alex,,0.4157677332509357,176.92593484431026,397.6191101074219,0.66625106
Be2LaSi2,4.832,dft,jarvis_alex,,0.5722637173347779,237.7478432223508,548.278076171875,2.3121638
CLuRu3,0.212,dft,jarvis_alex,,0.321769654529675,228.3418990095041,414.872802734375,3.0421867
FeSiW,0.0,dft,jarvis_alex,,0.0424154900160146,341.5848266462788,399.9941711425781,0.0049967
Co2OsZn,0.514,dft,jarvis_alex,,0.366554543982882,206.8901673545488,413.8743591308594,2.930397
AlLiSc2,0.005,dft,jarvis_alex,,0.235441683066165,251.52697878499643,450.5671691894531,3.1784792
NbRhZr2,8.296,dft,jarvis_alex,,0.9184367409969008,129.03015484710002,258.8933410644531,5.6937313
AlNi2V,1.951,dft,jarvis_alex,,0.4528790740758131,241.05123054689608,490.7478942871094,3.148688
HfMoReW,0.019,dft,jarvis_alex,,0.2594371675299788,214.81035508686728,343.0227966308594,3.1678205
AuLiOTi2,7.417,dft,jarvis_alex,,0.8213880047015464,142.00745012553782,376.3476867675781,4.6158714
Ga2Ni2Y,0.674,dft,jarvis_alex,,0.3998517435760952,158.33929879555714,348.8624572753906,3.1567369
CuTi2W,3.37,dft,jarvis_alex,,0.5349338815023965,209.74464155970875,353.2152404785156,3.7811222
CuNiRh2,0.023,dft,jarvis_alex,,0.2608591837249488,240.01355394853667,362.4848327636719,5.2729716
Hf2MoOs,2.912,dft,jarvis_alex,,0.5345617744351694,182.02987157731167,312.2581787109375,4.373793
Co3Ta,0.001,dft,jarvis_alex,,0.2140524553179912,290.2706474050909,441.1834106445313,3.9650636
AlRh2Zn,0.0,dft,jarvis_alex,,0.1043254143734567,224.2049289041332,421.0066223144531,1.3234928
GeHfZn2,1.402,dft,jarvis_alex,,0.4671131089265934,150.30495335590206,322.8265686035156,1.826109
Rh5Tc,1.62,dft,jarvis_alex,,0.4312498004452181,254.0673551430964,472.4820861816406,7.50165
AlCoMnV,0.0,dft,jarvis_alex,,0.1700187770371448,341.8806324700968,560.4389038085938,1.3470813
Ta2TcW,0.004,dft,jarvis_alex,,0.2355539592748045,217.9925665793296,378.5956115722656,2.7521505
CaGa2Sc,2.709,dft,jarvis_alex,,0.6211459793246963,103.25936625018056,327.35943603515625,1.8628273
LiRhScY,0.112,dft,jarvis_alex,,0.3082259764861847,177.6605497260497,295.7417907714844,2.758608
Fe2V4,1.279,dft,jarvis_alex,,0.3955597451731735,320.1768140921301,452.9407653808594,3.1651504
SnTcTi2,4.523,dft,jarvis_alex,,0.5860739921926571,206.69339699561087,353.0999450683594,3.540349
OsTaTcZr,0.0,dft,jarvis_alex,,0.1324057496977067,240.7495074160787,359.4324645996094,2.0087154
HfTi2Zn,2.447,dft,jarvis_alex,,0.5179875021324093,171.42013212370165,321.1455383300781,4.442573
C2TaZr,8.316,dft,jarvis_alex,,0.6308377671198294,302.9124467464376,546.8756103515625,1.0766245
AlHfZn,0.086,dft,jarvis_alex,,0.3054800813339517,147.9098052696813,358.0685119628906,1.1543002
GaSc2Tc,3.198,dft,jarvis_alex,,0.5662419609852979,163.15612022103036,351.7590637207031,3.3971748
GeLiRhZn,7.229,dft,jarvis_alex,,1.000436139215117,96.34795679555177,325.0588073730469,2.0313268
Be4IrZr,13.846,dft,jarvis_alex,,0.8299609434054195,259.7129238591941,598.1519165039062,2.2386785
AuNbNi4,0.001,dft,jarvis_alex,,0.2181063325608508,220.97505329917576,340.6105041503906,3.5182078
AuH2K2,1.134,dft,jarvis_alex,,0.5409143082970342,67.83120985762226,168.8066864013672,1.8474646
AlNiTcTi,0.0,dft,jarvis_alex,,0.1413306242052249,295.154330509072,474.9255676269531,1.3674296
InPSc2,0.37,dft,jarvis_alex,,0.3792233202705851,119.14369056035584,368.8114929199219,2.4138284
N2Sr,0.294,dft,jarvis_alex,,0.3286174197859641,265.1165001547121,383.7655944824219,1.8917211
P2Ru2Y,0.224,dft,jarvis_alex,,0.3178657520549888,268.63847292697614,469.0046691894531,2.1691294
AlGaRu2,0.511,dft,jarvis_alex,,0.3703646535885255,191.9776144203589,447.8997497558594,4.0392985
LiRh2W,5.19,dft,jarvis_alex,,0.7327256686385619,128.18619034648935,385.299560546875,3.3087566
AlCr4Ta,0.403,dft,jarvis_alex,,0.3330919311283695,326.6867638198142,448.5638122558594,3.2485476
NbRuTi2,6.856,dft,jarvis_alex,,0.7251177636362164,173.94403296664828,413.9587707519531,4.4156404
CoOs2V,4.795,dft,jarvis_alex,,0.5781238347373282,229.27218929299409,441.01165771484375,4.693791
CaInLiZn,0.001,dft,jarvis_alex,,0.2232716020340912,159.6911555577764,285.149169921875,1.3950104
Al3Sc,0.001,dft,jarvis_alex,,0.2122883489842142,332.64311160751714,607.2677001953125,1.6647774
AlGaSc2,0.118,dft,jarvis_alex,,0.3070485269705971,193.00202722943217,429.796875,2.9965863
MgRu2V,2.024,dft,jarvis_alex,,0.46992324712394,211.4097115973721,419.8808288574219,3.0740786
Be4PdZn,0.001,dft,jarvis_alex,,0.2083917999463494,403.52651104369056,690.4583740234375,1.2122874
Ca2Li2,0.0,dft,jarvis_alex,,0.177042983817623,201.15581763043696,249.12745666503903,3.8994648
Nb2NiPt,1.234,dft,jarvis_alex,,0.4262196904502185,205.13794529675823,392.2996215820313,3.8296878
Pt3Ti,0.185,dft,jarvis_alex,,0.326843664611666,174.89037316833952,329.3427429199219,2.2077608
Cr2ReTi,0.007,dft,jarvis_alex,,0.236884021002902,311.4045367890156,402.1575622558594,2.3402565
Ru2ScZr,0.0,dft,jarvis_alex,,0.1733475364823978,231.66732018160792,386.5124206542969,1.9197503
OsReTi2,0.094,dft,jarvis_alex,,0.291723332772857,255.6105160765232,378.1979370117188,3.1702387
Be4MoNb,1.642,dft,jarvis_alex,,0.3995065651730883,387.5482371448973,684.03271484375,2.8326669
MoTcW2,9.032,dft,jarvis_alex,,0.7723497771680506,199.39083375214625,397.4171752929688,2.8081987
AlPd2Zn,0.739,dft,jarvis_alex,,0.4240263986762439,125.8266785171374,360.2734375,2.0202975
Re2Ru2,4.381,dft,jarvis_alex,,0.5667573631142225,223.6923710182025,464.4577941894531,3.1287124
BeOsRuW,0.0,dft,jarvis_alex,,0.2012084972630353,237.1203259675,406.9782104492188,0.7844019
Al2NiRu,0.0,dft,jarvis_alex,,0.1970369321942374,257.0329272194673,513.4132690429688,1.7846633
Al2CdSc,0.0,dft,jarvis_alex,,0.2055261607762627,254.76027568068577,407.31451416015625,1.4647195
BiCa3N,0.0,dft,jarvis_alex,,0.1632143195064263,147.91399809676017,348.2651062011719,0.0
RuV2W,1.638,dft,jarvis_alex,,0.4270678823522453,269.6639609719813,410.2071838378906,2.6577246
Mo6Si2,2.201,dft,jarvis_alex,,0.4489835788495233,283.2790313831609,517.8548583984375,3.1597981
SiTc,0.173,dft,jarvis_alex,,0.3102475079232285,257.0502690641773,525.3745727539062,0.9827612
Be2CuPd,0.349,dft,jarvis_alex,,0.3316935772569386,292.1307271754859,467.1768493652344,1.1615667
AlNbOs2,0.0,dft,jarvis_alex,,0.1277662880963724,222.77039873444625,423.33203125,0.20519419
MgSc5,2.146,dft,jarvis_alex,,0.4900588541121773,187.5431513508876,316.0411682128906,10.112468
HV,8.921,dft,jarvis_alex,,0.6959919772029638,249.3136754626892,694.8972778320312,1.131986
MoTa2W,0.191,dft,jarvis_alex,,0.3218978391169995,205.5054156542724,366.2991638183594,2.7346485
NbTi2Tl,4.119,dft,jarvis_alex,,0.5782742651652998,196.4886910237552,266.4000244140625,3.9856741
ReTi2,12.114,dft,jarvis_alex,,0.9238583017783468,186.490858121158,362.49609375,5.006395
MgSc2Tl,0.0,dft,jarvis_alex,,0.1736067380193236,152.72215789541366,272.4869079589844,3.7274902
HHf3In,1.213,dft,jarvis_alex,,0.4496023284312865,154.4841091304381,300.2563781738281,2.9225109
Nb2TaW,4.288,dft,jarvis_alex,,0.5943740787304913,187.55827064180312,277.77227783203125,4.692674
Be3PdRh2,0.006,dft,jarvis_alex,,0.2344866172450847,294.1074279187032,474.7346496582031,1.8977106
MnNbOsTi,0.0,dft,jarvis_alex,,0.1749951298436149,293.1874360264629,378.4305725097656,2.5551286
MoTc2Ti,0.424,dft,jarvis_alex,,0.3436728400836535,269.47285961277225,414.6347351074219,1.8675265
Al6CuSr,0.005,dft,jarvis_alex,,0.2349506529543147,248.62170783936463,411.8982849121094,3.0628998
LiPt2Zr,0.026,dft,jarvis_alex,,0.2733490983100003,148.65409790166456,279.0045471191406,1.1850967
Ni2SnZr,2.345,dft,jarvis_alex,,0.5717240212542015,116.0236289546774,301.0492248535156,1.6495857
RhZn3,1.311,dft,jarvis_alex,,0.4628506943330163,146.5053599031824,309.38543701171875,1.9430224
MoPtTi2,1.661,dft,jarvis_alex,,0.4521670954316583,206.31201311883737,374.6614074707031,2.5095792
FLa2N,1.213,dft,jarvis_alex,,0.4200474917578996,217.2296422935229,380.14007568359375,1.4999449
OsRhTi2,2.695,dft,jarvis_alex,,0.512918744973768,196.3392583477132,401.1850280761719,3.939961
Al5HfRh,0.116,dft,jarvis_alex,,0.3014678721764746,226.9878090507874,393.4416809082031,2.849058
MoOsTaV,0.065,dft,jarvis_alex,,0.280755198375761,268.09108144477574,375.9752807617188,2.2919602
PdSc2Tc,1.891,dft,jarvis_alex,,0.4764333559841329,186.04941456469,344.6228942871094,3.421397
AlScYZn,0.025,dft,jarvis_alex,,0.2692635762522291,169.13512237417075,376.1836853027344,3.341114
Rh2ScTi,3.321,dft,jarvis_alex,,0.5678331306368457,168.15113035480638,381.9915466308594,3.5956097
AgAlLi,0.286,dft,jarvis_alex,,0.3413225850442558,191.3869080086089,310.8730163574219,0.74196386
NbTaTi,15.754,dft,jarvis_alex,,1.2591308304866298,151.5733159005208,275.8388671875,5.213917
HPtRhV2,0.797,dft,jarvis_alex,,0.3707227139070759,297.38532042432723,420.9236450195313,2.07911
C2TiV2,0.051,dft,jarvis_alex,,0.2652651768205755,416.8546839034864,696.871337890625,1.4445366
Be2Ni3Si,0.74,dft,jarvis_alex,,0.3794559135910401,237.82165514281616,497.0243835449219,2.9321299
CdRh2Sc,0.0,dft,jarvis_alex,,0.1814095031196519,161.2460971231714,316.3211364746094,1.5160419
Al6Sc2,0.042,dft,jarvis_alex,,0.2676892158081272,305.340092601615,599.068359375,3.491695
HfTaTc2,0.031,dft,jarvis_alex,,0.2674222271965307,229.71396057067304,353.2756652832031,3.6513655
MoTa2Tc,0.011,dft,jarvis_alex,,0.2474529421304561,236.4766983399111,378.7840576171875,2.7295504
Be4MoRe,0.054,dft,jarvis_alex,,0.2711825684540939,339.4317567094221,636.6094970703125,1.4378737
Be2CoCu,0.0,dft,jarvis_alex,,0.1926123811334433,364.3935654938202,577.31005859375,1.5001078
AlCrTc,0.003,dft,jarvis_alex,,0.2254758254724806,341.0525933361009,543.18603515625,1.3237158
Ti6Zr2,9.288,dft,jarvis_alex,,1.0305356321749153,117.8615490324775,334.32879638671875,8.347672
Al2PdZr,0.052,dft,jarvis_alex,,0.2829327615932449,197.34195684995663,412.7794494628906,1.846089
Cu2LiPd,0.0,dft,jarvis_alex,,0.135217399089991,214.2626686359804,307.2812194824219,0.8160749
CCo3In,0.005,dft,jarvis_alex,,0.2358087728421454,259.5441340210537,489.8789978027344,1.2981234
ScSiZn2,0.044,dft,jarvis_alex,,0.2757606207946901,226.4430631508804,427.3894653320313,0.5190339
Mo2NbRe,1.822,dft,jarvis_alex,,0.4469889874643639,239.50661366572805,392.6917419433594,2.24627
PSeY2,0.023,dft,jarvis_alex,,0.2622935811227167,222.8891585284934,348.3576354980469,0.8860445
CMgTi2,0.041,dft,jarvis_alex,,0.2676757699481371,302.97293992515813,550.4533081054688,2.9261723
Ni6Ti2,0.0,dft,jarvis_alex,,0.0900575844555563,279.90988865195067,515.34423828125,1.7847133
AuMoTi2,2.477,dft,jarvis_alex,,0.5098905341840495,184.2915037231095,353.5642395019531,4.2193084
CoGaHfNi,1.418,dft,jarvis_alex,,0.4956251008605358,118.00795162671886,328.2089538574219,3.6773028
HfTc2Ti3,5.621,dft,jarvis_alex,,0.6279359563324738,208.54381308172344,358.1079406738281,6.035175
AlScZr2,2.737,dft,jarvis_alex,,0.5160154262538434,194.98928899096663,379.6797790527344,3.9522538
Cr4MoSc,1.089,dft,jarvis_alex,,0.3900215563413506,296.2058009273369,461.9963684082031,3.9321265
Al2AuRu,0.002,dft,jarvis_alex,,0.2295767170880664,189.8722835072145,387.5039978027344,1.3117905
AgAuCd2,0.006,dft,jarvis_alex,,0.2513679502926734,107.77621227627516,171.4340057373047,0.65761054
Al6NiSr,0.004,dft,jarvis_alex,,0.2323546904507031,264.40726003228093,442.2752380371094,3.3313315
GeRhRuZn,0.009,dft,jarvis_alex,,0.2493020035652955,183.08153163075167,394.3901672363281,1.8888752
Co2HfSi2,0.002,dft,jarvis_alex,,0.2214933136642946,250.85958396769624,484.0986022949219,2.6774783
C2Hf3,0.02,dft,jarvis_alex,,0.2581236242474135,234.2873417672028,457.2838439941406,2.025244
AlRu2Si,0.148,dft,jarvis_alex,,0.3061896318119484,248.7609464682677,522.8814086914062,2.0204036
TaTc2Ti3,6.683,dft,jarvis_alex,,0.7055379821857061,181.13984698631427,364.5480041503906,6.8527226
GaHNiRh2,0.737,dft,jarvis_alex,,0.4101918637443641,149.80081031553885,395.6653137207031,4.095591
InMgRh,0.795,dft,jarvis_alex,,0.4593339946407594,91.67811115464316,310.4747619628906,2.789256
InRu2Ta,0.0,dft,jarvis_alex,,0.168563696728262,209.372755903318,344.9322814941406,1.3156265
Rh2Ru6,1.738,dft,jarvis_alex,,0.4315415807505181,271.58896394384595,485.1664733886719,5.8484097
CuInLiNi,0.002,dft,jarvis_alex,,0.2294328532507152,160.46027971429172,324.8823547363281,1.420516
GaTiZr2,4.335,dft,jarvis_alex,,0.584162935217004,200.5270073872612,364.8597106933594,3.7928016
AlRh2Ta,0.676,dft,jarvis_alex,,0.400056752514818,158.43208473573975,408.6324768066406,3.185019
CCaPbY2,0.0,dft,jarvis_alex,,0.2025878561451744,226.2852864373721,330.516845703125,0.7456856
NPtRe,5.037,dft,jarvis_alex,,0.5813013571612309,235.2897760815553,389.3028259277344,2.9590943
CH2Ti2,0.0,dft,jarvis_alex,,0.1310859286586435,556.3620939169662,554.182861328125,0.51103735
OsTaTi2,3.237,dft,jarvis_alex,,0.5603404939958571,170.97458450748726,358.8585205078125,4.909205