formula,Tc,tc_source,dataset,pressure_gpa,lambda,wlog,debye_temp,dos_ef
PtRh2Sc,0.336,dft,jarvis_alex,,0.3457047367160263,204.77677267741555,355.4891357421875,2.9441605
Ni4ScZr,1.341,dft,jarvis_alex,,0.4504380772046131,169.60906177443562,406.9279174804688,5.7122474
LiRh2Ti,0.0,dft,jarvis_alex,,0.2029627582622716,232.9650851382725,370.263671875,1.5113727
GaLiOSc2,0.0,dft,jarvis_alex,,0.1743070542046155,297.09785324748384,479.8807067871094,1.3237765
Pt3Rh,0.713,dft,jarvis_alex,,0.4021751576954757,162.14044470001173,295.5053405761719,7.632842
HfZn3Zr2,0.017,dft,jarvis_alex,,0.2646933646476865,141.04244402445337,303.42462158203125,0.9442407
GaLiPtRh,0.0,dft,jarvis_alex,,0.1135362525224599,195.2564300440717,323.9764099121094,1.7586218
BiCSc3,0.518,dft,jarvis_alex,,0.3552901262006876,258.02691873016283,426.410888671875,3.4388008
GaRhSc2,0.861,dft,jarvis_alex,,0.4422209185113818,118.8060681424351,320.44952392578125,2.050359
OPbSr3,0.0,dft,jarvis_alex,,0.1612478168943477,117.14470323854783,249.65391540527344,0.19020577
BaNbO3,0.0,dft,jarvis_alex,,0.1860665280760395,429.2243912898656,503.0869445800781,1.3812946
HfKS2,5.34,dft,jarvis_alex,,0.8348195752106176,98.91006973693077,328.0138244628906,1.9598825
Al2Mo3Nb3,9.873,dft,jarvis_alex,,0.7843860750108678,210.5804422011356,422.4884948730469,9.717872
CaNi4Sc,0.0,dft,jarvis_alex,,0.2058595448570674,217.54730309140928,380.2322082519531,7.255173
HfRu2Ti,0.0,dft,jarvis_alex,,0.1534864298766156,260.1425855235504,387.6541748046875,0.92368823
GaNi6Sb,0.0,dft,jarvis_alex,,0.1788903254747302,220.082407980887,368.2549743652344,7.2663145
AlCuV2,1.247,dft,jarvis_alex,,0.4078338609942134,262.4037708157855,456.4570617675781,3.8381557
AuBe2Ni,1.54,dft,jarvis_alex,,0.4641613303720016,169.32422256929175,354.5141906738281,1.587436
InLaNY2,0.029,dft,jarvis_alex,,0.2696223968815792,191.8904031931212,330.2005310058594,2.5826855
PZr,4.605,dft,jarvis_alex,,0.5835242550908974,213.0062699059682,464.2592468261719,0.8085766
Hf2InN,0.198,dft,jarvis_alex,,0.3193627129104947,227.0067603988346,330.2456359863281,2.5656805
Pt2RhTi,0.002,dft,jarvis_alex,,0.2270788375168973,198.51017762904863,380.6108093261719,3.1416824
AuCu6Si,0.014,dft,jarvis_alex,,0.2547554230537279,200.8115107362292,319.6195983886719,3.243876
AlHHf3,0.799,dft,jarvis_alex,,0.4039903752761629,176.78817811135758,324.1245422363281,2.0477507
AsMgPd,1.506,dft,jarvis_alex,,0.4811375805205091,141.90145369770275,275.8808898925781,1.4732978
Pt2Ru2,1.251,dft,jarvis_alex,,0.4194430962130245,226.2698348315622,371.8277282714844,4.2575808
CuSiSr,0.262,dft,jarvis_alex,,0.334374997229476,205.57630840904744,359.8324584960937,1.1384224
AgCa2HLi,0.021,dft,jarvis_alex,,0.2651233836186123,171.35097769427378,314.3836364746094,2.8322532
HfNi2P2,0.818,dft,jarvis_alex,,0.3917288050648041,216.50718987380188,404.348388671875,4.93358
Cu2LiZn,0.022,dft,jarvis_alex,,0.2635159758845493,196.22728429267164,307.9047546386719,0.8001473
AlTi2Zn,0.893,dft,jarvis_alex,,0.3905967766296492,240.64940389764865,462.3779602050781,4.167263
Al4Cu2,0.389,dft,jarvis_alex,,0.3398749899689863,269.3402494160444,425.6712951660156,2.9839954
FeGe3Lu,0.206,dft,jarvis_alex,,0.3350740969122604,158.91334688900798,303.5734558105469,2.3691392
AlV2Zn,0.092,dft,jarvis_alex,,0.2883937588096006,283.7262958145758,479.4566345214844,3.3587654
GaTi3,2.264,dft,jarvis_alex,,0.4623211408033875,254.42036720519263,442.4155883789063,3.9610105
GaTc2W,3.162,dft,jarvis_alex,,0.5414458758844792,188.60524366344788,383.3452453613281,3.0218408
MgRh2Sc,0.0,dft,jarvis_alex,,0.1270755470596308,215.87328883291732,386.4495239257813,1.2088546
Re2TaZr,0.021,dft,jarvis_alex,,0.2614488053378233,207.69557010048337,331.8606872558594,2.4704134
BeCrFe2,0.126,dft,jarvis_alex,,0.2912617094291053,348.76794847484854,512.038330078125,1.0046531
IrNaP2Tc,0.686,dft,jarvis_alex,,0.3781390609132874,225.40670147532623,368.5956726074219,2.661024
Cr2Hf2N2,2.446,dft,jarvis_alex,,0.4574210257959851,287.83081351353275,469.6661071777344,3.2281451
SnTi2V,5.789,dft,jarvis_alex,,0.6205257039154334,222.52609316695583,374.03167724609375,3.8042743
Hf2OsRe,0.012,dft,jarvis_alex,,0.2528296976333286,193.15185831533347,317.6215515136719,3.0325658
MoRuTa2,0.096,dft,jarvis_alex,,0.2967589746851924,220.38935370669444,352.4441223144531,1.6174489
Ni4PtY,0.058,dft,jarvis_alex,,0.286530779706114,192.72199664039707,326.8083801269531,8.181974
GaRh,0.012,dft,jarvis_alex,,0.2526455708326171,185.8956931251273,322.3992004394531,0.8926133
BCo3Zr,0.0,dft,jarvis_alex,,0.1290723099300724,240.00251681555773,533.6471557617188,0.12340277
NbRh7,0.622,dft,jarvis_alex,,0.3662454089054093,252.1033574404405,495.9529418945313,7.0019493
Fe2Zr4,5.675,dft,jarvis_alex,,0.6670008880116963,178.2367111822465,265.8881530761719,6.0855966
GaLi2Ru,0.028,dft,jarvis_alex,,0.2671262285279199,213.6440774171495,373.6159362792969,1.5816213
PdRh6Ru,0.705,dft,jarvis_alex,,0.3732011347249788,252.46126760084428,437.4224548339844,7.27629
CSe2V2,0.499,dft,jarvis_alex,,0.3424481468309496,325.3463511531656,320.5365295410156,3.721981
BeNi2,0.0,dft,jarvis_alex,,0.172145690429875,307.5934972692944,523.3179931640625,1.4893272
NiPtZn2,0.0,dft,jarvis_alex,,0.131167676043429,171.9790568245394,300.3449401855469,1.5712904
CrHgTi2,9.792,dft,jarvis_alex,,0.8387139718434417,180.79760782398824,369.493408203125,3.9174163
LaNi2P2,0.568,dft,jarvis_alex,,0.3735639503084303,201.8313704770412,421.6053161621094,2.1103916
MoNiRh2,0.948,dft,jarvis_alex,,0.3945404796122485,241.0105808842549,453.0570983886719,3.952167
Ga2La,5.445,dft,jarvis_alex,,1.0962034069980602,62.718297463784815,310.1264953613281,1.792917
AlSc2Tl,0.226,dft,jarvis_alex,,0.3364054125975904,168.96707639772993,288.6410217285156,2.5370862
MoPtRu2,4.282,dft,jarvis_alex,,0.5726560639364571,211.2787962278344,410.3805847167969,2.765645
AlCuNiPt,0.044,dft,jarvis_alex,,0.294439045224094,108.98504255199138,338.4126281738281,2.6929152
MgRhRuSi,0.0,dft,jarvis_alex,,0.1510953283152778,271.72466607515395,477.8602294921875,1.6519878
ScZn2Zr,0.162,dft,jarvis_alex,,0.322386876658724,171.70298498669987,341.4298400878906,4.807861
FeTi2,3.945,dft,jarvis_alex,,0.5195512736128274,273.9844853606291,517.4992065429688,3.9009442
Si2V2Y,0.036,dft,jarvis_alex,,0.2678907420517125,263.9253468614685,463.0238342285156,2.7430563
AlCScY2,0.004,dft,jarvis_alex,,0.2334172597378486,214.47426301223845,455.7231140136719,1.1505611
H3PdSr,0.088,dft,jarvis_alex,,0.2672207943864464,662.8069601098799,339.4559020996094,0.71037096
MnNiTi2,0.883,dft,jarvis_alex,,0.3923474375215233,231.63303039406696,432.2792053222656,3.6263108
AlGa3Na,0.476,dft,jarvis_alex,,0.3802969897032621,150.79685075548386,316.32452392578125,1.2857583
ReRh3,0.625,dft,jarvis_alex,,0.3690716912940833,240.5571056260025,439.1089172363281,4.0485687
Nb2OsRe,8.379,dft,jarvis_alex,,0.7906423012702826,175.49996975059858,365.3658752441406,2.8062277
Co2GaV,0.145,dft,jarvis_alex,,0.3055333861252937,249.88667407368663,463.2246398925781,2.1836913
Fe2La2Si2,0.228,dft,jarvis_alex,,0.334338920123817,178.97915656633643,248.50038146972656,6.1294217
Al2CoRu,0.0,dft,jarvis_alex,,0.1605806073382839,279.08812128653494,553.3212280273438,2.843823
CdSc2Tc,1.236,dft,jarvis_alex,,0.442266948558144,170.66769156429285,297.2730407714844,3.883218
InNi2Ti,1.021,dft,jarvis_alex,,0.4444453864405957,137.54287182220264,306.2092590332031,3.86992
CoOsSc2,0.0,dft,jarvis_alex,,0.1972351379297184,224.49512072961247,347.636474609375,3.024894
GeHMo,0.081,dft,jarvis_alex,,0.2829617611134515,307.0672923907308,463.6455993652344,1.3445671
Be4GaNi,0.004,dft,jarvis_alex,,0.2268878965826196,430.2168631663525,790.7694702148438,2.833598
AgO2Y2,0.005,dft,jarvis_alex,,0.2459955357947157,119.82669400235406,307.3883972167969,0.81234163
B4TiV,0.027,dft,jarvis_alex,,0.2488130548591659,545.9384745101393,1151.5201416015625,2.3058777
AlNi2Zn,0.002,dft,jarvis_alex,,0.2271781253678753,201.25154241019385,454.0833435058594,2.1522684
Co2MoTi3,2.788,dft,jarvis_alex,,0.5017393330987516,221.45830150818824,449.5474243164063,5.0024147
CIrV2,0.75,dft,jarvis_alex,,0.373291990676454,267.5742185206207,557.7115478515625,2.4109442
Pd2Ru2Sc4,0.0,dft,jarvis_alex,,0.0981199410144796,237.6969302024206,353.6468200683594,3.8047602
Rh3Ti,0.746,dft,jarvis_alex,,0.3780913393236916,245.64303167412703,486.7718200683594,4.1178203
InNZr2,0.641,dft,jarvis_alex,,0.3646245293266212,266.90709832184496,413.8975524902344,1.6102049
HHf2InTi,2.393,dft,jarvis_alex,,0.5046840152451717,185.157022607411,328.5454406738281,3.4728985
Cu2Rh3Sr,2.376,dft,jarvis_alex,,0.540263178895755,142.74397601091135,276.1752624511719,7.0450635
Be2NiRu,4.6,dft,jarvis_alex,,0.5871547718649456,208.2848881308995,563.8369750976562,2.7211702
GaNbPd2,3.078,dft,jarvis_alex,,0.5558102844821293,167.70623151469945,338.5645751953125,1.6779795
Os2ScTi,0.113,dft,jarvis_alex,,0.3005273545080176,227.22930563290225,374.4990539550781,3.5426073
Mn4NbOs,9.121,dft,jarvis_alex,,0.6939589148270263,258.6107172072252,431.8025207519531,5.454608
Ni2P2Zr,0.242,dft,jarvis_alex,,0.3216242652373161,261.38839974654684,443.1513977050781,4.9822474
Rh2Ti3V,3.181,dft,jarvis_alex,,0.509884195872862,237.2025561728477,400.7444152832031,5.7075114
RuTcTiV,0.001,dft,jarvis_alex,,0.2133416241123015,309.4127780845747,456.53564453125,1.0962971
Be2Si2Ti2,0.0,dft,jarvis_alex,,0.1717654700099496,368.1610670374345,707.771728515625,1.4679219
Mg2PdSi,0.044,dft,jarvis_alex,,0.2773421738515286,211.74080421132965,431.4070739746094,0.9043686
MnNb,0.005,dft,jarvis_alex,,0.2331565270068763,298.5911660124032,413.9994201660156,0.9892927
Al2NiTc,0.231,dft,jarvis_alex,,0.3392893987004702,161.61557130852265,529.5347290039062,2.8547711
NiRhTiZn,0.571,dft,jarvis_alex,,0.3918663693131011,150.65491809902622,364.2063293457031,3.2489078
HfLuN2,1.935,dft,jarvis_alex,,0.4155230002085138,366.829050099122,481.93359375,1.0312761
CoNi2W,0.026,dft,jarvis_alex,,0.2615580122085474,257.5651536797639,440.1122131347656,3.3009615
Al2La,7.224,dft,jarvis_alex,,1.4000603256941633,59.585892504701285,341.8265686035156,1.9758704
Mo2Sc,2.338,dft,jarvis_alex,,0.4736292107981537,236.12563067460167,399.9736022949219,3.6468499
Al5NiTi,0.486,dft,jarvis_alex,,0.3486020634070736,277.866253809715,502.4276428222656,2.4137244
In2PdTi3,0.75,dft,jarvis_alex,,0.3900261805710958,203.85456143964052,343.6226501464844,7.139991
HfRh2Sn,0.47,dft,jarvis_alex,,0.3732643549585132,168.02747547608402,320.1058044433594,0.7385828
MoNbTa2,5.212,dft,jarvis_alex,,0.6517824036969854,173.93580065664216,315.1169738769531,4.4261804
As2Ti2Y2,0.02,dft,jarvis_alex,,0.2581354601877545,235.800856994356,358.2870178222656,6.199887
LiZn2,1.251,dft,jarvis_alex,,0.4682232292884986,132.28952074310385,321.8100280761719,1.0098982
RhRuZnZr,0.154,dft,jarvis_alex,,0.3165399339201439,190.93020215025217,361.2545471191406,2.7133217
H2PdTi2,2.492,dft,jarvis_alex,,0.4849888174147477,226.51220944990345,435.970458984375,4.617758
Al2Mg,1.781,dft,jarvis_alex,,0.4427803225694866,244.61186552400383,490.5773620605469,1.3612396
GeRh2Sc,1.051,dft,jarvis_alex,,0.4634878896474769,116.42322143177594,383.3284606933594,1.5551068
AgAlCuLi,0.017,dft,jarvis_alex,,0.2586425786187498,200.1653055561637,318.33612060546875,1.8194737
Be2CoSi,2.377,dft,jarvis_alex,,0.4482549459512611,307.5605027191253,732.9224853515625,1.4758762
AlTlZr2,0.143,dft,jarvis_alex,,0.3150725806238979,185.74593268602595,321.3822937011719,2.4779272
Re2TiW,0.034,dft,jarvis_alex,,0.2684541962073848,241.29636705704155,376.3946228027344,1.95005
BeTcTi2,1.183,dft,jarvis_alex,,0.3957439531523223,294.9527978986919,500.41156005859375,3.6525059
Rh7Ti,0.596,dft,jarvis_alex,,0.3630466296377867,256.4105863065278,479.4956970214844,6.866454
Fe3HW,0.07,dft,jarvis_alex,,0.2770733798466903,339.2921241885797,450.7576599121094,4.077692
La4PS3,0.06,dft,jarvis_alex,,0.2873353017230691,192.3767269605818,295.9237365722656,3.1210086
Mo2NbTi,5.958,dft,jarvis_alex,,0.6338232380007968,215.3109053059893,411.8351745605469,4.710794
Hf2RuTc,0.006,dft,jarvis_alex,,0.2393032154607301,220.5367031935893,321.9170837402344,2.1236806
BeFe2P,0.001,dft,jarvis_alex,,0.2142846738098468,372.10710301979407,630.1707153320312,2.659887
Hf2RhTc,0.0,dft,jarvis_alex,,0.1799661775494266,199.7233613226388,275.7965393066406,1.3539789
AlCuPdZr,1.652,dft,jarvis_alex,,0.5414003494163031,98.21759818921272,262.946044921875,1.7806629
CoSi3Y,0.261,dft,jarvis_alex,,0.32106753435386,286.59673628099404,489.707763671875,1.5116984
BeLiNiSi,0.665,dft,jarvis_alex,,0.3502900673968442,367.0113576984129,574.1303100585938,1.3577824
GaGeRu2,2.638,dft,jarvis_alex,,0.5585281220031653,140.88876037068664,384.9461364746094,2.5464563
Co2Ti2Zr2,1.985,dft,jarvis_alex,,0.4848825525817705,181.09390030261687,378.7607727050781,7.6532016
HfN2Zr,11.135,dft,jarvis_alex,,0.6832886859133568,326.8484606482567,552.1724853515625,1.3071378
BeCo2Ti3,5.925,dft,jarvis_alex,,0.6627757938454999,189.06847186696888,485.4050903320313,4.825525
AlNb6Ta,7.23,dft,jarvis_alex,,0.7058952477425984,196.70424929662047,229.82215881347656,9.20741
CuRuZn2,0.0,dft,jarvis_alex,,0.1674420137220891,182.7861757056704,352.0924987792969,1.8445027
Al2BeMo,0.0,dft,jarvis_alex,,0.0650119158978627,400.4550399640997,619.6173095703125,0.7918487
AlHgZr2,0.814,dft,jarvis_alex,,0.4113345929940665,163.23985128370677,322.83160400390625,3.4447658
AlLiY2,0.341,dft,jarvis_alex,,0.3497964334512679,190.29705834036776,344.2513732910156,3.8556833
Be4NbTc,0.309,dft,jarvis_alex,,0.3158174993002728,392.04856032374096,677.922119140625,1.8329501
GaNiRh2,0.127,dft,jarvis_alex,,0.3138855065918671,169.72735576151806,341.81402587890625,4.1435213
HNbRh2Tc,1.221,dft,jarvis_alex,,0.405598065922189,264.2323189932281,462.2883605957031,3.894351
H2MgSc2,0.015,dft,jarvis_alex,,0.2496226921258159,285.6338758903891,554.9708862304688,1.973394
NiPbSc,0.413,dft,jarvis_alex,,0.3650239557210294,170.69900408448814,293.3003845214844,3.755199
BeCdSc2,0.061,dft,jarvis_alex,,0.2817402689594625,242.27397739997056,388.7760620117188,3.3583584
LiNi2P2Zr,0.359,dft,jarvis_alex,,0.343504476085294,228.84783473061023,447.7460632324219,3.219285
CsCu2P2Y,0.0,dft,jarvis_alex,,0.1527007093639975,220.4221691391228,307.1815185546875,0.63332736
MoTaTcV,0.058,dft,jarvis_alex,,0.2776334008102006,271.3592413373527,379.4874572753906,2.493954
H2Y2,0.001,dft,jarvis_alex,,0.2217732947740795,213.1318907047162,431.6937561035156,2.980445
BeCY,2.727,dft,jarvis_alex,,0.4420957853693509,376.9332109276158,721.1658935546875,1.221568
Bi2Zr2,0.311,dft,jarvis_alex,,0.3646753503735582,129.54927089238802,230.9094390869141,2.3072848
HMo3Pt,3.834,dft,jarvis_alex,,0.5396089864067496,230.7685952499523,412.6686706542969,3.0682514
CdTcTi2,0.727,dft,jarvis_alex,,0.3806144410298441,229.5047608261232,341.2393493652344,3.6872294
Be3Ni,5.687,dft,jarvis_alex,,0.5883826172631996,255.5695756212102,711.1627197265625,1.3867627
HHf2TiTl,3.682,dft,jarvis_alex,,0.5902587080710333,163.89153386858897,295.5108337402344,4.252533
Cr3Tc,13.906,dft,jarvis_alex,,0.8058708690566798,280.7981855333989,483.8184509277344,5.7685294
CuInRhZr,2.864,dft,jarvis_alex,,0.6178023764248395,111.16757039396522,302.7495422363281,3.8994954
MoPtZr2,1.323,dft,jarvis_alex,,0.4439624531032974,179.41046367409243,255.24082946777344,2.542349
C2P2V4,0.498,dft,jarvis_alex,,0.331676082071387,417.6168857819607,771.0934448242188,4.324774
Mo2PdTi3,7.37,dft,jarvis_alex,,0.6954801549671001,207.6147051164912,404.1814575195313,6.902637
Be2Ni3V,0.005,dft,jarvis_alex,,0.2332285780136507,311.89952691417955,520.0167236328125,2.5666924
Li7Pd,1.548,dft,jarvis_alex,,0.4521790734048514,192.08102893134304,273.2531433105469,4.2547727
Be2Ni,0.327,dft,jarvis_alex,,0.3200585445926749,368.5712950386345,627.474609375,1.4923929
HNaPd3,0.054,dft,jarvis_alex,,0.2817110002821419,213.0080333854181,273.8218688964844,3.6020706
BePt2Ta,0.027,dft,jarvis_alex,,0.2706055990430779,175.2587084374594,329.0351257324219,0.9034251
PtSi2,1.65,dft,jarvis_alex,,0.4970659494509533,135.55398549660092,298.1278991699219,0.6952672
AlHLiY2,0.155,dft,jarvis_alex,,0.3157418786672985,196.33083163998035,424.2088317871094,4.5361776
BTi3Tl,0.186,dft,jarvis_alex,,0.3197847163622472,211.51671295797183,439.5812072753906,4.812197
Hf2MoOs,0.976,dft,jarvis_alex,,0.4144760529615719,187.9694718740076,312.0434875488281,4.471958
MgPt6Tc,0.174,dft,jarvis_alex,,0.3249761305767465,172.46471988089067,325.4772033691406,7.449889
NiTi2,0.942,dft,jarvis_alex,,0.4060648932556321,202.79740014555608,318.9859924316406,2.4306507
LiPtRuV,0.0,dft,jarvis_alex,,0.1609003394753405,244.90134542357927,366.908203125,0.70738715
Nb2Tc,0.02,dft,jarvis_alex,,0.2567460607737132,260.07104620518913,380.8725280761719,1.1837164
RuZr3,3.989,dft,jarvis_alex,,0.5801757081925915,188.6810796838008,316.2798156738281,3.6485994
Ta2TcW,0.005,dft,jarvis_alex,,0.2372761930601013,220.482169419196,369.3516540527344,2.0505173
AlMg2Sc3,0.04,dft,jarvis_alex,,0.2759391091907978,204.10236200891995,415.7678833007813,5.86916
PdPt2Rh,0.343,dft,jarvis_alex,,0.3539340089516545,176.01998161028962,299.3445129394531,8.367745
B2N2Ni2Y2,2.49,dft,jarvis_alex,,0.4224206307503863,432.9531347792299,543.3219604492188,3.8822947
Nb2Rh6,0.095,dft,jarvis_alex,,0.2925426274960159,251.7242071926669,441.3224487304688,5.896173
NbRuTa2,0.25,dft,jarvis_alex,,0.3309321127822478,213.1855363420416,320.0570983886719,1.9583756
CdRh2Sc,0.001,dft,jarvis_alex,,0.2163368898547883,176.6605916395899,311.3731384277344,2.8327732
AgReTi2,1.005,dft,jarvis_alex,,0.4104485348463925,203.9399603626944,319.6045837402344,5.018426
MgMoRu2,0.0,dft,jarvis_alex,,0.1933761489499554,246.94566808894817,409.2643737792969,0.5428774
Li2,0.522,dft,jarvis_alex,,0.3599689836355718,237.4275853457727,381.3016052246094,0.904245
MoNb2Ru,0.145,dft,jarvis_alex,,0.3044450012319021,257.4968369309694,398.0532531738281,1.3339779
Ga2N2Sr2,0.285,dft,jarvis_alex,,0.3577169686342962,135.10273068298548,369.3354797363281,1.0348647
LiMoPt6,0.08,dft,jarvis_alex,,0.2987181303235895,171.88299289022112,306.19207763671875,6.9688034
MoNbW2,0.006,dft,jarvis_alex,,0.2385201153142938,239.84821169947327,356.6863098144531,1.6812286
Be4MoTa,1.121,dft,jarvis_alex,,0.3793966578012791,360.7252402792087,632.5582885742188,4.2084384
HfLiS2,5.997,dft,jarvis_alex,,0.8615781222774619,104.32325448594396,355.3716125488281,1.4966958
GaLiOsTa,1.542,dft,jarvis_alex,,0.4550202474418349,186.0586891289672,309.1839294433594,3.5006576
Tc3Ti2Zr,2.349,dft,jarvis_alex,,0.4717863147177566,241.24090801437444,384.784423828125,5.943591
Co2CuTa,0.0,dft,jarvis_alex,,0.1013488530463446,247.13323165241368,394.6002197265625,1.0039719
Rh5Zn,0.516,dft,jarvis_alex,,0.358538273361832,241.8183125221941,427.4773864746094,8.586046
Mg2PtRh,0.0,dft,jarvis_alex,,0.1071546590270628,172.92579983565014,331.7875671386719,2.23523
H2LaPt,1.097,dft,jarvis_alex,,0.4636551193303597,121.53208898210129,261.1005554199219,0.8889416
CuLi,0.035,dft,jarvis_alex,,0.2709004908254607,219.25880045698145,316.9498596191406,0.57360804
Mo2N2Zr2,2.736,dft,jarvis_alex,,0.4573441744247743,322.33535694488046,532.4361572265625,2.2990124
MgNbNi4,0.716,dft,jarvis_alex,,0.394780415941419,181.2160380944468,440.9292907714844,7.052619
Al3AuLa,0.0,dft,jarvis_alex,,0.2101197743384612,194.359714484292,291.6029968261719,2.2082067
RuZn3,0.598,dft,jarvis_alex,,0.3933413028668271,154.57089125123176,356.5938415527344,2.0053823
MgOSc3,0.044,dft,jarvis_alex,,0.2699205509273414,290.542744280912,518.1142578125,3.0583928
HgRh2Zr,0.0,dft,jarvis_alex,,0.0968963866029628,184.4709714101249,291.7533569335937,0.5060458
InNi2Sc,0.051,dft,jarvis_alex,,0.2864897936130451,167.65232985725743,333.2496032714844,2.7270277
AlPt2Zn,0.036,dft,jarvis_alex,,0.2853527087132974,123.96529526922996,325.7608642578125,0.9344156
OsTcTi2,0.184,dft,jarvis_alex,,0.3109127228266495,268.1486325247527,424.9634399414063,3.423
P2YZr,0.274,dft,jarvis_alex,,0.3293598048580315,242.99127510170493,443.1330871582031,2.2995198
HfNbRuTc,0.0,dft,jarvis_alex,,0.1686026178986595,252.55993523999683,370.8730163574219,1.0608466
Hf2LiRe,0.418,dft,jarvis_alex,,0.3730912576515442,149.55180760799755,243.1344757080078,4.0400634