formula,Tc,tc_source,dataset,pressure_gpa,lambda,wlog,debye_temp,dos_ef
LuS,2.983,dft,jarvis_alex,,0.5753953324481726,144.1606671566687,300.5127258300781,1.0748174
CaLi2Pb,0.0,dft,jarvis_alex,,0.1286880853125484,156.67518649852957,264.7662048339844,0.09865551
Ga2HfMg,0.069,dft,jarvis_alex,,0.2938068094297957,174.61304970785702,319.8257141113281,1.7327819
BCoRu2Zr,0.0,dft,jarvis_alex,,0.1895293609916885,253.0553157210376,525.4385986328125,1.8863753
Al2Ni4Sc2,0.298,dft,jarvis_alex,,0.3373229225594362,218.57876773160072,459.4140319824219,5.5074954
AlLuNi2,0.144,dft,jarvis_alex,,0.3217146111528455,155.62020806883208,315.7505798339844,1.8934195
LuRh2Ti,3.349,dft,jarvis_alex,,0.6650411498067801,105.45138762937547,321.85693359375,3.3015966
CTeZr2,0.0,dft,jarvis_alex,,0.1480218701622623,332.56961752702205,382.2184143066406,0.78234947
HfRu2Ti,0.0,dft,jarvis_alex,,0.1439135024198695,265.0468425897787,402.4454345703125,1.5384176
AsPZr2,0.0,dft,jarvis_alex,,0.1446537254963058,261.21446708887095,421.7880554199219,0.81349605
RuYZn2,0.097,dft,jarvis_alex,,0.312508256764514,135.41201194752648,309.9035339355469,1.2522324
HfRhScTc,0.0,dft,jarvis_alex,,0.1977386671638374,223.1505122594176,359.19921875,2.784558
Be2KP2,2.565,dft,jarvis_alex,,0.4487491715546681,329.8588636412535,614.4610595703125,0.8602049
LiScZn2,0.0,dft,jarvis_alex,,0.1733705217366599,208.23261130776584,328.0408630371094,0.60283285
GaLiRhZr,3.588,dft,jarvis_alex,,0.5711257382022831,177.9390161203929,314.4857482910156,4.7375784
Be2HfTi,0.002,dft,jarvis_alex,,0.2259369516398179,222.40709333382068,453.9293518066406,0.88868403
AuNTi2,0.101,dft,jarvis_alex,,0.292114809541958,272.29203670689185,466.9604187011719,1.2933482
CaGaNY2,0.045,dft,jarvis_alex,,0.2909319262178204,126.91342684230668,400.9754333496094,1.3909606
NbRu2Y,0.091,dft,jarvis_alex,,0.2969559085053526,205.84264976869545,334.0155029296875,2.2438254
NTcZn,15.069,dft,jarvis_alex,,1.0822449080437702,176.69275212713902,529.4757080078125,2.2981849
MgYZn2,0.028,dft,jarvis_alex,,0.2723207438806335,166.42508546737383,317.2862243652344,1.715973
HfRuSnTc,0.009,dft,jarvis_alex,,0.2476275973655678,196.50609200787247,314.3720397949219,4.4602165
AlY,0.025,dft,jarvis_alex,,0.269390445525521,165.9894798775536,335.6769714355469,0.8239863
LiMg3,0.009,dft,jarvis_alex,,0.2459662527330859,214.8987299770052,397.1105651855469,1.4924089
HPtRh2Sc,0.455,dft,jarvis_alex,,0.3493138572597457,256.14345834949404,357.1676940917969,4.0918427
CaSi2,0.0,dft,jarvis_alex,,0.1682496123218828,294.67118580718545,522.9639892578125,0.5936521
NbOsTi2,4.951,dft,jarvis_alex,,0.6186566475997054,191.5799814732397,379.8959045410156,4.1520915
Ga2Zr4,3.132,dft,jarvis_alex,,0.5526881553391679,174.00402790787228,326.2268981933594,6.286537
B2C2Cu2Y2,7.311,dft,jarvis_alex,,0.549498057517397,413.0844906537932,477.7791748046875,3.1196368
OsReTaTi,0.0,dft,jarvis_alex,,0.1424972801249453,254.9589232274332,363.8175964355469,1.3937994
OsTaTcTi,0.0,dft,jarvis_alex,,0.1398032678980493,270.9004432924192,378.7668151855469,2.2841327
AlPtTi2,3.942,dft,jarvis_alex,,0.5808422720001747,185.1044842087344,378.1784362792969,4.7131324
Cu2P,0.035,dft,jarvis_alex,,0.2714021517542324,217.506922734137,336.1639099121094,1.3984325
Mg3Rh,0.0,dft,jarvis_alex,,0.1717971834583303,204.2570052192654,374.9225463867188,1.2677711
BeCoFeGe,0.0,dft,jarvis_alex,,0.1596977332121007,292.4982806720804,512.9764404296875,3.1036124
GaNiV,0.426,dft,jarvis_alex,,0.348415656285805,244.46661576405893,429.41259765625,1.8225147
NaO3Re,0.001,dft,jarvis_alex,,0.2185763220940215,278.75876610783985,471.9063415527344,1.6707971
AlNi2Sc,0.036,dft,jarvis_alex,,0.2747680797289291,193.89572073528845,433.9611511230469,3.357512
HfRhTi,0.297,dft,jarvis_alex,,0.3410088336867644,200.00873960442573,289.8363342285156,2.0709248
Pt2Tc6,0.159,dft,jarvis_alex,,0.3047764465740073,280.26892894435093,479.6741943359375,3.762067
AlGaSr,0.512,dft,jarvis_alex,,0.3801300778673296,162.68067373084884,317.3215026855469,1.3138516
CoFe2HMo,0.035,dft,jarvis_alex,,0.2623662095213291,328.97948261302395,477.8244934082031,2.7796016
Al2LiPd,0.01,dft,jarvis_alex,,0.243300367964009,280.67170495225014,427.8997192382813,0.98075193
PtRh2Sn,0.24,dft,jarvis_alex,,0.3385885943071928,171.05222333870003,317.5058898925781,2.6601524
Al2O4Pd2,0.0,dft,jarvis_alex,,0.0888669150183437,270.96901471458483,568.5888671875,1.3505976
NbOs2Ru,9.174,dft,jarvis_alex,,0.7940270328768965,190.89876331077787,430.8064575195313,5.0100307
AlCaZn3,0.737,dft,jarvis_alex,,0.4041012373547075,162.9724654114283,314.6524963378906,2.0826178
COTi6,3.822,dft,jarvis_alex,,0.5110727704559822,281.8815990361168,567.125244140625,7.0590105
B4Ru2,2.13,dft,jarvis_alex,,0.4269074901692938,350.41758615908896,757.7042846679688,3.1259325
HRu3Ta,4.583,dft,jarvis_alex,,0.5610620043690459,240.83091031604448,408.2117614746094,5.513986
P4Ti4,0.0,dft,jarvis_alex,,0.1870697727579655,349.6976014549111,611.9688720703125,3.9635499
Al2C2Ti2V2,0.001,dft,jarvis_alex,,0.2073286938301093,416.7798469348234,706.7830810546875,3.942086
Ru2ScZr,0.0,dft,jarvis_alex,,0.1762442605952983,238.66835353537508,382.9475402832031,2.0081003
Cr2MoRe,12.848,dft,jarvis_alex,,0.8381876679479923,238.78881639145803,402.5615539550781,4.0522213
CdInY2,0.002,dft,jarvis_alex,,0.2343507521684749,127.04159794889516,228.4810333251953,4.3570704
GaHMo,0.063,dft,jarvis_alex,,0.2823899221818077,244.4385312537446,440.1349792480469,0.8792445
Be4RuTa,2.305,dft,jarvis_alex,,0.4336409569526324,350.3209614249151,619.8157348632812,1.7262396
Mo7Ta,0.615,dft,jarvis_alex,,0.3650073044136696,255.009146470296,439.4235534667969,4.370293
H2Ru6W2,0.746,dft,jarvis_alex,,0.3731620167649366,266.5987349504524,474.0664367675781,4.3906054
BNiRu2Sc,0.081,dft,jarvis_alex,,0.291798659921348,219.7013877431026,518.7806396484375,3.4432318
BeLiPt2,0.0,dft,jarvis_alex,,0.1544995905212277,216.5859312642015,336.7761535644531,1.017712
Al5CoY,0.0,dft,jarvis_alex,,0.2028062880306889,289.246653767907,508.0753784179688,1.6720729
AlSiSr,5.809,dft,jarvis_alex,,0.7531570361226274,134.59503906425644,392.4117736816406,1.397957
FeMnSiV,0.0,dft,jarvis_alex,,0.1946922351801902,355.1069013415972,497.6755065917969,0.91569585
BC2Lu2,1.064,dft,jarvis_alex,,0.3835109031231231,319.7416375575009,418.7674255371094,1.8581188
HHfSn,1.041,dft,jarvis_alex,,0.4392430669443289,148.4181956548572,248.5030059814453,1.2591612
Al4HfY,0.0,dft,jarvis_alex,,0.1841640635720675,218.18260589447144,445.514404296875,2.4114683
HfRu,0.0,dft,jarvis_alex,,0.1349034099095805,231.23316965412977,341.6762390136719,0.7590781
Ag2Si2Sr,0.013,dft,jarvis_alex,,0.2504818843780821,229.8666967497425,321.1899108886719,1.8826934
Ru2ScY,0.208,dft,jarvis_alex,,0.3281781455624087,190.4397254519754,307.5359191894531,3.4015167
AlRhRuSc,0.02,dft,jarvis_alex,,0.2580760364351926,236.0599040118192,471.7221374511719,2.9279776
Li2TlY,0.001,dft,jarvis_alex,,0.2204887960390533,133.76128641119195,347.3652038574219,0.52711207
MoRh2W,0.726,dft,jarvis_alex,,0.3812165939920524,227.18408539211697,443.4892272949219,1.7982951
ScZn2Zr,0.207,dft,jarvis_alex,,0.3349555707446075,160.3633291510534,342.2252502441406,4.2103415
RhRuTaZn,0.0,dft,jarvis_alex,,0.0783950456831769,212.04825916784503,347.7666931152344,0.9587604
RhTcTi2,0.0,dft,jarvis_alex,,0.1976404862256129,273.32404088065283,401.7758483886719,1.6906112
Os2TaZn,0.271,dft,jarvis_alex,,0.3475627427387131,158.28595780893076,351.1082763671875,3.301959
GaLiPdZr,0.0,dft,jarvis_alex,,0.0215869230396249,215.6104915769539,268.4830017089844,-0.0288402
Nb2Os2Y,1.076,dft,jarvis_alex,,0.438146041605509,155.42048960186068,293.7749328613281,2.9934082
OsScZr2,0.978,dft,jarvis_alex,,0.4104368704176696,198.61070433674192,293.6153869628906,2.984515
MoTiW,1.084,dft,jarvis_alex,,0.404505257817596,238.51885450695832,386.4586181640625,3.044007
In2Zr2,0.09,dft,jarvis_alex,,0.3026673889872966,169.20625372161427,308.1969909667969,2.2353394
Be2N2Sn2,1.218,dft,jarvis_alex,,0.4797466470704136,115.94875513018764,542.413330078125,1.1570977
MoOsTa2,0.002,dft,jarvis_alex,,0.2271781123991901,232.1011487930127,355.7618713378906,1.6312641
LiMgPd,0.016,dft,jarvis_alex,,0.2620613811354247,151.47489382305622,299.3707580566406,1.3219664
Be4MgRh,0.615,dft,jarvis_alex,,0.3390970323368061,432.5247526161208,730.577880859375,2.8937538
Os2TaZr,10.679,dft,jarvis_alex,,1.004707782606969,143.38481935458216,346.3894348144531,3.614178
LiOsScZr,0.386,dft,jarvis_alex,,0.3565769032889135,187.56809793919925,304.0461120605469,3.6490242
Cr4MoTi,9.102,dft,jarvis_alex,,0.6827206788694908,269.33738768563074,481.6868591308594,5.1514244
MgRh2Zn,0.087,dft,jarvis_alex,,0.305292300319271,151.39816649862937,370.6905517578125,3.0837526
AlAuNb2,2.659,dft,jarvis_alex,,0.5373556750611982,162.6441623473954,360.7379455566406,2.6636438
CuHRh2Zn,0.993,dft,jarvis_alex,,0.4098694490655531,202.71372499010613,376.7742919921875,5.7524557
MnMoTiW,0.036,dft,jarvis_alex,,0.2666834940184328,277.6976749840553,404.0576477050781,2.6154547
GaTcTi2,0.005,dft,jarvis_alex,,0.2344077830290415,261.46372467686115,407.5113830566406,1.3648008
AlSrZn3,2.237,dft,jarvis_alex,,0.5817560759675924,104.21843391914342,282.1612243652344,2.008029
CaPdSi3,3.378,dft,jarvis_alex,,0.5260739388052569,223.1197782894936,416.3349914550781,1.4486548
RuTa3,0.115,dft,jarvis_alex,,0.3044074095700428,204.8313828772374,300.88916015625,1.8424559
Mo2Ni2P4,0.134,dft,jarvis_alex,,0.3005920644285274,268.4550170561685,516.576171875,1.7701266
InSc2Zr,1.631,dft,jarvis_alex,,0.4646883472423702,179.04100203017566,280.0837097167969,3.3371935
N3Tc3,17.658,dft,jarvis_alex,,1.2028282968859043,177.48799466537105,591.3135986328125,3.6187565
NbPtTi2,1.67,dft,jarvis_alex,,0.4389079429089779,239.5981313654353,325.4886474609375,6.1297464
Al2CoLi,0.077,dft,jarvis_alex,,0.2841228296697611,280.2704016722274,594.1431274414062,2.3904915
MoTa2,2.101,dft,jarvis_alex,,0.4873792767889215,187.73207845358465,336.2070007324219,3.0614843
LiNbRh2,0.0,dft,jarvis_alex,,0.2060695245396862,204.8804307267987,371.6692504882813,1.0999436
AgAlCuSc,0.117,dft,jarvis_alex,,0.3161437536616804,146.91238238165815,304.44873046875,2.5770082
PdTiZn,2.594,dft,jarvis_alex,,0.5112280118275152,191.30206274973744,324.1298828125,2.2031424
AgAl2Zr,0.011,dft,jarvis_alex,,0.2500039709263014,215.29547014220972,374.2837829589844,1.6602813
CoNiV2,4.378,dft,jarvis_alex,,0.5525099279626948,243.3832953656748,517.3049926757812,2.9181538
CdHLiPd2,0.034,dft,jarvis_alex,,0.2597698020556761,367.6250157306095,286.8261108398437,0.7860014
Hf2OsRu,0.0,dft,jarvis_alex,,0.1137411004028711,216.543993692308,335.1278991699219,0.51818
NbRh2Ti3,4.434,dft,jarvis_alex,,0.5887043116590424,199.84429941787823,379.7029113769531,5.6873274
AlCa2,1.343,dft,jarvis_alex,,0.5648109710300248,68.93868196179245,327.7409973144531,1.9636589
GaRu2Sc,6.093,dft,jarvis_alex,,0.7143727942607343,160.5962946886086,438.5606384277344,5.8693557
Mo2NbTa,0.25,dft,jarvis_alex,,0.3281351757956118,228.66150193196427,371.8227844238281,2.413012
AlScZr2,2.246,dft,jarvis_alex,,0.4874203365388558,200.73624504565944,375.0338745117188,2.9762225
Ta,10.227,dft,jarvis_alex,,0.993076059489312,139.8889209537774,243.0858154296875,1.027416
AlTcW,0.041,dft,jarvis_alex,,0.2721860452828787,244.73223140293751,449.8625183105469,0.97827727
B2Ni2Ta,0.147,dft,jarvis_alex,,0.2980080194904442,321.8088069789341,582.3355102539062,2.5364
B2Ru2Si,0.002,dft,jarvis_alex,,0.2182375203280545,389.5887903920985,631.0006103515625,1.015807
Mo2NiOs,2.277,dft,jarvis_alex,,0.4729180743278001,231.46878314202968,425.2874450683594,2.7099142
Co3VZr2,5.113,dft,jarvis_alex,,0.6738659042259368,155.91632779331144,390.4977722167969,5.6914654
GaGeRu2,1.682,dft,jarvis_alex,,0.4727871069635417,171.03231104297728,408.0766296386719,4.566264
GeTc2Ti,5.166,dft,jarvis_alex,,0.6255635187598858,193.8098813941405,422.7194213867188,4.792704
TaTc2W,5.724,dft,jarvis_alex,,0.6289542368027983,211.84008830094905,378.14263916015625,4.225307
HfMoReTa,0.547,dft,jarvis_alex,,0.370639360798587,204.52842104129988,351.38873291015625,3.2362735
GaNbZn2,0.0,dft,jarvis_alex,,0.1419615053370098,238.7278656815572,396.269775390625,0.96480143
La2P2Pd2,0.015,dft,jarvis_alex,,0.2585774713661628,169.45575898656278,308.4629821777344,1.3608744
Al2OsPd,0.0,dft,jarvis_alex,,0.1484268588226237,237.41020210880828,396.0909118652344,1.0881991
Al2MoZn,0.0,dft,jarvis_alex,,0.0809627895719087,302.8346899464372,509.3338623046875,0.62789696
Tc3V5,0.019,dft,jarvis_alex,,0.2512743641342221,325.0137413183573,465.6049499511719,5.1198773
HSbTi3,6.833,dft,jarvis_alex,,0.7215346594325637,174.95075512399393,370.0001831054688,6.336847
MgScSn2,1.904,dft,jarvis_alex,,0.5050834461571186,147.1396780872834,256.26007080078125,1.6240721
AlOs3V2,2.678,dft,jarvis_alex,,0.4872482391459509,239.58330232575628,402.6449279785156,3.3492503
NbRh3Ta2,5.124,dft,jarvis_alex,,0.7400792207498644,123.63212576625844,331.16265869140625,5.0457525
Fe2KP2,0.002,dft,jarvis_alex,,0.2190182456679296,300.9299607816397,395.6432189941406,3.5957975
MoPtTi2,0.973,dft,jarvis_alex,,0.4069270299275755,206.9545541601474,393.40826416015625,2.8589907
Li2O4Ti2,4.689,dft,jarvis_alex,,0.5118139938753078,344.1181876530345,857.2686157226562,2.6203659
HgLiMg2,0.008,dft,jarvis_alex,,0.2475052546949138,173.3122896221063,240.7779083251953,1.1330227
LiMgPdSi,0.314,dft,jarvis_alex,,0.3399162083806712,216.92456542828967,398.4802551269531,1.3088835
GeTc3,5.082,dft,jarvis_alex,,0.6110527651354513,204.2867178158792,422.8654479980469,2.6165857
AlNbNi6,0.0,dft,jarvis_alex,,0.17191795162822,258.3974716629285,472.54534912109375,3.3289926
H2InNi2,0.017,dft,jarvis_alex,,0.2582748514230434,196.3067282113657,415.1690368652344,1.0654151
FeH2Hf2,0.008,dft,jarvis_alex,,0.2432125261808241,235.43517936700988,301.4024353027344,0.61029434
Al2CuNi3,0.0,dft,jarvis_alex,,0.190648893442978,220.72783594844745,456.1788635253906,3.2781332
LaP2Zr,0.097,dft,jarvis_alex,,0.2953411681275991,233.467267250184,381.52191162109375,1.576261
AlCr2,2.376,dft,jarvis_alex,,0.4445874754628894,320.4824416739104,601.6760864257812,1.649817
AlLiPdTi,0.0,dft,jarvis_alex,,0.0348522577806714,278.71002604947205,377.1361083984375,-0.058261
Li3Pd,0.027,dft,jarvis_alex,,0.2682936461341374,190.1467796676491,267.5995483398437,1.1415504
HRh2Ru,3.986,dft,jarvis_alex,,0.5401916277202602,238.99700410172125,458.3536682128906,3.0914521
NbReTi2,11.027,dft,jarvis_alex,,0.9326770597622834,166.594069794887,325.01885986328125,3.9073746
AlBeHf,0.924,dft,jarvis_alex,,0.4063815964549582,197.8484023722849,440.9765319824219,0.7919542
MoPdTi2,1.554,dft,jarvis_alex,,0.4386019693935369,223.4997320953352,390.3820495605469,2.4354904
AlTi7,15.992,dft,jarvis_alex,,1.1020023024677696,185.66101106087245,469.0486755371094,12.876678
O3Re,0.0,dft,jarvis_alex,,0.1669499114111876,485.2666387936943,584.2569580078125,0.9384112
GeNbRu,5.849,dft,jarvis_alex,,0.6637535886381631,186.23436139194445,398.0490417480469,1.4366331
GaPdTi2,0.605,dft,jarvis_alex,,0.3713367611969653,223.5498590512445,376.0839538574219,4.2462316
Be2FeTi3,0.029,dft,jarvis_alex,,0.2608428157678074,293.70690022209664,583.1693115234375,1.6799531
AgAl3Sr,0.143,dft,jarvis_alex,,0.3119440058298438,202.3543818329757,270.5915832519531,2.2961445
Co3HW,0.073,dft,jarvis_alex,,0.2807996579918872,301.90222026369395,482.0069274902344,0.67552483
MoTcVW,0.743,dft,jarvis_alex,,0.3715959459123598,273.6854472441489,401.5744934082031,2.147306
ScYZn2,1.21,dft,jarvis_alex,,0.4562886166695816,144.14885156503894,303.2415466308594,3.8803473
LiP2Ru2Y,1.269,dft,jarvis_alex,,0.4119717385075401,252.27379045668025,442.7322082519531,2.8835201
Al4CaY,0.381,dft,jarvis_alex,,0.3413917627925589,254.9501371012896,479.31292724609375,3.5966077
CuLi2Pd,0.0,dft,jarvis_alex,,0.1880132377269284,199.92889473953588,308.16943359375,1.0715925
H2InSc2,0.043,dft,jarvis_alex,,0.2832773304071083,158.95964121437615,424.5841979980469,1.4749022
MgPt2Zn,0.0,dft,jarvis_alex,,0.1494939859316926,151.62175654674024,286.99462890625,0.9646271
Nb2ScTc3,0.581,dft,jarvis_alex,,0.3638527129506209,245.7838543660937,401.5704956054688,5.6633167
Ru2ScV,0.032,dft,jarvis_alex,,0.2655682770468343,262.0048143393434,423.5196838378906,1.4140437
GaHfRu2,0.037,dft,jarvis_alex,,0.275954159965452,189.37063100924632,364.1137390136719,2.2461474
InTi2Zn,0.193,dft,jarvis_alex,,0.3201697460832911,217.29974776012028,372.1994934082031,4.779375
AlGaRhRu,0.0,dft,jarvis_alex,,0.1302966763696392,247.6233704810477,460.8524475097656,1.670361
C2Ca2,0.013,dft,jarvis_alex,,0.2495862214249125,246.3213892207628,358.4197082519531,2.899415
Nb2Re,0.084,dft,jarvis_alex,,0.2907381003833185,235.99624585697973,349.44805908203125,1.6267478
Hf2NiZr,3.144,dft,jarvis_alex,,0.5794152271595244,149.1018951450068,237.19097900390625,3.9204834
MnTa2Tc,0.0,dft,jarvis_alex,,0.1769782775694624,261.7655008092396,348.3624572753906,1.1081502
CCr2H,2.215,dft,jarvis_alex,,0.4128291774269504,435.310643127013,725.1412353515625,3.040165
H4Ru3Ti,0.658,dft,jarvis_alex,,0.3512611004352633,355.5574536104079,484.2708435058594,1.8804363
Co2MgTi,0.0,dft,jarvis_alex,,0.1083025582577722,280.4716867195555,450.9092102050781,2.639284
Al2Cr2,0.102,dft,jarvis_alex,,0.2867653009903569,332.7456383140121,613.84130859375,2.174686
Be2Si2Zr2,0.0,dft,jarvis_alex,,0.1061934673670608,360.7761424321024,661.0194091796875,1.2171811
GaLiMoOs,0.0,dft,jarvis_alex,,0.1709856581735377,235.9915306908864,333.6878356933594,0.51796466
TiZn6Zr,0.33,dft,jarvis_alex,,0.3558220110858571,162.93426193391363,289.98345947265625,3.7756019
MoNbVW,0.318,dft,jarvis_alex,,0.3347765273261454,247.6986671484821,334.8767395019531,2.6833909
CdH2Ni2,0.027,dft,jarvis_alex,,0.2701141827236216,176.1190402222646,403.4529724121094,1.5982721
AlCdLi2,0.044,dft,jarvis_alex,,0.2735359324399309,244.95189707484624,310.0869140625,1.1622534
Cr4HfW,6.365,dft,jarvis_alex,,0.6198983158646442,245.1341175380392,359.27069091796875,4.3118606
TcTi2Zn,0.549,dft,jarvis_alex,,0.3620688123768131,240.1302624768641,390.8707580566406,3.5233364
Pt2RhZn,0.162,dft,jarvis_alex,,0.3240397925832602,164.51083121847955,286.67388916015625,3.6527326
SiTc2Ti,4.514,dft,jarvis_alex,,0.56474210001202,232.84798978812515,466.2095642089844,4.5288625
ReTa2W,0.0,dft,jarvis_alex,,0.2051198325391648,212.4008400921481,356.7672119140625,2.405712
Al2Sc4,1.315,dft,jarvis_alex,,0.4409587943635861,184.2722852343278,453.8880004882813,6.815851
Cu2Si4V2,0.0,dft,jarvis_alex,,0.1306572971100772,374.2118344609813,584.792724609375,0.63736
Cu4PdZr,0.009,dft,jarvis_alex,,0.2476860724378198,197.55307847475504,331.06103515625,4.2583065
AlSc5,1.818,dft,jarvis_alex,,0.4669728265013652,195.25909453740732,374.6017761230469,8.0275
NiReTi2,1.07,dft,jarvis_alex,,0.4177045984168702,197.42814099154072,325.0397033691406,3.7773635
CrOsTa2,0.025,dft,jarvis_alex,,0.2617709760751903,244.31840878261568,344.0065002441406,1.7018845
FeMnSbTi,0.0,dft,jarvis_alex,,0.0953977772948337,312.68104417378123,363.2496643066406,-0.22463425
H3NaPt,11.748,dft,jarvis_alex,,0.4715732746708336,1208.1885449522251,336.6331481933594,0.58598924
B2Y,1.822,dft,jarvis_alex,,0.3934650315255807,469.8116401447618,782.282470703125,0.92569107
CoLuSi3,0.402,dft,jarvis_alex,,0.345319733486656,246.54363360093583,434.0104675292969,1.2331948
HgNTi2,0.114,dft,jarvis_alex,,0.2926242183104813,301.4652495358264,419.0992126464844,2.5610154
ReTcTiW,0.001,dft,jarvis_alex,,0.2150733101429409,267.92539432150704,416.3118591308594,2.6232274
FeHf2Re,0.015,dft,jarvis_alex,,0.2566670852381092,195.73026245510405,311.2129821777344,3.6467893
CoHOs2Ta,0.363,dft,jarvis_alex,,0.3391574329334065,255.09281286636667,374.35589599609375,3.1145976
B2NiRuY,1.273,dft,jarvis_alex,,0.4000751071131419,297.9175390423045,503.4131164550781,1.7475064
Cu2P2Sc,0.029,dft,jarvis_alex,,0.2638934242733521,254.0887141221826,432.1263732910156,2.5620697
GaPtZr6,4.898,dft,jarvis_alex,,0.665121705338154,155.0108710233005,278.1760559082031,10.982392
VZn2,0.01,dft,jarvis_alex,,0.2432223686068302,293.5736923462818,400.7967834472656,1.1810483
AlLiOsV,1.157,dft,jarvis_alex,,0.4037313116862382,257.28662041290846,397.2278137207031,4.5330453