formula,Tc,tc_source,dataset,pressure_gpa,lambda,wlog,debye_temp,dos_ef
InTi3,1.266,dft,jarvis_alex,,0.4171285139923735,235.612163998645,377.1339111328125,3.7263489
Au2MgZr,1.682,dft,jarvis_alex,,0.5838259217214258,77.5253057613048,187.0402984619141,1.1091152
NbReTi,1.529,dft,jarvis_alex,,0.4311286219148701,239.660206918733,365.15576171875,3.1287963
HPdRh2Sc,1.179,dft,jarvis_alex,,0.4080721955357567,246.7456530534748,379.9055480957031,5.376061
Rh6Zr2,1.066,dft,jarvis_alex,,0.413284503236664,208.62239606851207,401.6883850097656,6.4719086
NPbZr6,2.08,dft,jarvis_alex,,0.4849550700156442,189.45465453467068,342.6441345214844,5.98134
NRhTc,0.9,dft,jarvis_alex,,0.371620513664124,330.66270651323555,494.3609924316406,1.493527
TiZn2Zr3,5.635,dft,jarvis_alex,,0.7213682427409652,144.72638063297293,327.3490905761719,5.9852233
Rh6Ta2,0.112,dft,jarvis_alex,,0.2988818395640001,238.7669017192352,403.9604187011719,6.966819
OsRhZr2,2.346,dft,jarvis_alex,,0.5264168093823257,155.0520045297954,311.5426940917969,3.4645436
NbOsTcTi,0.0,dft,jarvis_alex,,0.1738919844098826,285.49338062497014,412.0704040527344,1.8262336
AlOsSc2,0.105,dft,jarvis_alex,,0.3036119996545101,191.8789642664743,320.93316650390625,2.3683982
HNi3Sc,0.0,dft,jarvis_alex,,0.0726346233854194,337.5469049989741,448.1545715332031,0.3490244
B2Co2Nb,0.158,dft,jarvis_alex,,0.2967857114006132,360.7410664792799,676.06640625,3.227869
CoMnTi2,0.0,dft,jarvis_alex,,0.1773950222117358,302.9544154404539,497.6329956054688,2.0302215
AlCTi2Zr,0.561,dft,jarvis_alex,,0.3657290594544706,228.97704881352865,580.0670166015625,4.0204344
NiRhV2,3.403,dft,jarvis_alex,,0.5135669454907126,246.93231472293272,473.9124145507813,2.6844199
GaMgNi2,0.051,dft,jarvis_alex,,0.2921112406706126,138.164148089234,386.8146362304688,3.1736977
RuV2W,0.565,dft,jarvis_alex,,0.3544597168708873,286.9356317585286,410.5836486816406,2.4411852
CRhRu2Y,0.026,dft,jarvis_alex,,0.2636076543950735,236.02507324645555,424.9263610839844,2.4854534
CaS2Sc,0.058,dft,jarvis_alex,,0.2785494915625904,262.05217237560095,459.2251892089844,1.7617077
HRh3Zr,0.011,dft,jarvis_alex,,0.2454114856056399,271.66405692500894,419.9353637695313,2.8042576
HgSbTi6,7.012,dft,jarvis_alex,,0.7042691396584804,191.2277827645476,277.2588806152344,6.942284
B2Co2Ti,0.219,dft,jarvis_alex,,0.3058428758951736,372.13983773728,705.987060546875,3.0535796
AlHfZn2,0.005,dft,jarvis_alex,,0.2376129233565525,190.3932043160048,331.5636901855469,1.4411272
CCoRu2Sc,0.001,dft,jarvis_alex,,0.2169430932906883,270.3074320713714,523.5782470703125,1.8151487
Sc2Tc4,12.88,dft,jarvis_alex,,1.1072232318008082,147.71065604970755,357.5372619628906,6.608834
Nb2Rh2Ru2,0.433,dft,jarvis_alex,,0.3591535922650595,200.1927845249764,390.9159851074219,3.8714964
Pd2SbTi,0.642,dft,jarvis_alex,,0.4072430892276761,135.99390402411038,322.93780517578125,1.9435273
Si2W2,0.014,dft,jarvis_alex,,0.2506138205595689,246.81391827294823,498.12353515625,1.826006
GaRu,1.824,dft,jarvis_alex,,0.478238799515011,176.73587351840172,408.3691711425781,1.8491919
HfNbTc2,0.042,dft,jarvis_alex,,0.2729814268616152,243.18593637656292,358.0745544433594,3.3762624
Cu2TiZn,0.004,dft,jarvis_alex,,0.2342848633953139,188.91355032446089,341.6784362792969,1.6065508
BHgRh2,2.002,dft,jarvis_alex,,0.5153047393238573,142.74756364109112,412.0928039550781,3.2870512
HRh3V,1.097,dft,jarvis_alex,,0.4090406836035084,226.9280659320728,464.0443115234375,3.8471177
CMgScY2,0.311,dft,jarvis_alex,,0.3450809914663683,191.6930244099615,409.0427551269531,6.1702523
Cr4Re2,20.615,dft,jarvis_alex,,1.1512324827342322,224.17244934973905,407.8359069824219,7.0990834
BePSr,0.791,dft,jarvis_alex,,0.366789748376554,316.64056534258043,477.2035827636719,1.6639907
FeLuSi3,0.459,dft,jarvis_alex,,0.34710481208527,270.4770212623002,442.3139953613281,2.2176957
AgCsF3,5.013,dft,jarvis_alex,,0.7575876062271215,114.44675697467368,278.16778564453125,2.0154626
PdS2V,0.297,dft,jarvis_alex,,0.3347125753485043,231.1882776701161,327.8325500488281,1.1292346
H2Si2Sr2,0.895,dft,jarvis_alex,,0.3836485579671036,268.5411982961357,370.0976257324219,1.2732171
Se2Ti2,0.029,dft,jarvis_alex,,0.2642174212756342,247.1547494921176,366.62152099609375,2.773755
CuRh6Tc,1.103,dft,jarvis_alex,,0.4040480197935173,244.60111164984065,450.4028625488281,8.201181
ScZn3,0.19,dft,jarvis_alex,,0.3343013571730041,149.6096675106366,303.5017395019531,2.1097145
Pt2Tc,0.791,dft,jarvis_alex,,0.3876064002008315,223.40330927936847,359.5476989746094,2.5268755
MoNi2Ru,1.419,dft,jarvis_alex,,0.4235108921838995,244.0724624366706,453.4769592285156,4.2748404
Al2C2Nb4,0.059,dft,jarvis_alex,,0.2733230675653238,331.75157355094404,577.862548828125,3.1331098
Pd2PtTi,0.0,dft,jarvis_alex,,0.1270999507624275,208.8234169252372,375.6018371582031,0.81148165
MoTcTiW,0.067,dft,jarvis_alex,,0.2814778092822806,268.33253948137644,421.2961120605469,2.3358865
RuTa2W,0.002,dft,jarvis_alex,,0.2265178909351539,223.5075107061521,342.5229187011719,1.0771394
Be4CuPt,0.049,dft,jarvis_alex,,0.2673163848394954,367.310275131628,638.464599609375,1.9239734
MoReTaW,0.058,dft,jarvis_alex,,0.2814420217034217,232.95966721479368,365.5601501464844,3.399324
NbRu3,8.843,dft,jarvis_alex,,0.7407616785631221,214.8303523037179,462.99908447265625,5.80775
HInTi,0.0,dft,jarvis_alex,,0.2028573594706722,276.0020237615855,376.8899841308594,1.6753777
Rh2SnTi,0.16,dft,jarvis_alex,,0.31932590047317,183.75178204715132,367.83251953125,0.818979
MgRhRuZr,0.001,dft,jarvis_alex,,0.218603748551921,207.4824649239084,382.6485900878906,2.488594
AlCrMn,0.008,dft,jarvis_alex,,0.2366017185878746,382.1769365686697,606.93505859375,1.3959025
GaRhRuZr,0.0,dft,jarvis_alex,,0.0582511266709488,234.19695521613252,373.7902526855469,0.8451022
MnPdZr2,2.992,dft,jarvis_alex,,0.5663769572187093,152.51710092675944,310.6549987792969,2.5869794
Rh2ZnZr,0.0,dft,jarvis_alex,,0.1713706895150752,178.73906577740067,323.9012756347656,1.8114647
Ge2N2Ti4,2.07,dft,jarvis_alex,,0.4355248967481157,307.9156936090485,585.9097900390625,4.4374957
FeInSc2,0.001,dft,jarvis_alex,,0.2120835474041772,209.03420472028745,315.0329895019531,1.766579
PdTi6Zn,6.294,dft,jarvis_alex,,0.6489761850382899,213.0011745377473,376.9607238769531,12.805281
LiPt2Zr,0.002,dft,jarvis_alex,,0.2261143971397932,155.87092117424444,245.2740173339844,1.9256619
SiTc2W,6.216,dft,jarvis_alex,,0.666618172190754,195.3223787297325,443.56646728515625,2.5347528
CuHPd2Zn,0.0,dft,jarvis_alex,,0.1675229641852258,264.65731782215295,330.6767578125,0.6355396
LiNbRh2,0.286,dft,jarvis_alex,,0.3408288168189377,193.3026247541333,329.4797668457031,2.3581269
Mo2W2,1.048,dft,jarvis_alex,,0.3997564984655094,246.98586234694903,391.6062927246094,1.7659351
PtRu2,1.774,dft,jarvis_alex,,0.443051063101987,243.28863768677985,428.2737731933594,2.5664382
CdRuSc2,0.028,dft,jarvis_alex,,0.2700422389897255,184.1698003387636,302.7213439941406,3.1451473
CCl2Nb2,2.58,dft,jarvis_alex,,0.4906200436122431,223.79348536662283,243.38595581054688,1.5180043
CuReTi2,1.357,dft,jarvis_alex,,0.4372551648974201,197.97713399778365,337.4443054199219,3.3283312
CuGeY,2.055,dft,jarvis_alex,,0.5038637676371897,160.52254556614434,338.2542419433594,1.1821176
BBeCo2,0.0,dft,jarvis_alex,,0.1645960587583002,382.3423221724544,706.3525390625,1.5387061
InNi2Zr,0.755,dft,jarvis_alex,,0.4108170424696447,152.46113362018917,323.1558532714844,3.6583354
CH2Ta2,10.752,dft,jarvis_alex,,0.6983805521949621,297.77461399191384,370.5456848144531,1.610446
Al3CaZn,0.003,dft,jarvis_alex,,0.2334694624776808,190.6809207216196,370.7192077636719,1.4704579
Al2PdTi,0.027,dft,jarvis_alex,,0.2654740756450955,217.65747670811703,444.240966796875,2.2432353
Al2LiRh,0.651,dft,jarvis_alex,,0.3740554185821777,229.22076906758585,473.6597595214844,1.5662231
RhSi3Y,2.001,dft,jarvis_alex,,0.4593117110844308,231.17459014555016,430.85552978515625,1.4551241
LaNbSi2Tc,2.425,dft,jarvis_alex,,0.5265608743794435,159.61090517418933,402.3201293945313,3.1071393
InLiPd2,0.034,dft,jarvis_alex,,0.2902895037575532,96.9587975826641,258.6560974121094,1.1115105
CSbY3,3.44,dft,jarvis_alex,,0.6357923532716988,122.46359324729714,383.3411560058594,3.0229366
Mo2TaV,0.693,dft,jarvis_alex,,0.3750945190030577,239.9701906507063,400.1235656738281,3.6470988
CuTiZr,0.479,dft,jarvis_alex,,0.3679763956830836,187.7610377695784,355.1240539550781,1.5996178
Sc2Zr,4.984,dft,jarvis_alex,,0.644937895085889,171.581454135361,302.5202331542969,4.8545146
C4HfZr3,0.0,dft,jarvis_alex,,0.1722621099717039,434.1609852351917,561.8953857421875,1.473962
Be4TcW,0.059,dft,jarvis_alex,,0.2721901024970569,351.86431503992145,645.4969482421875,1.1149347
AuNbTi2,4.331,dft,jarvis_alex,,0.5991553340220067,184.4826239752071,282.1487731933594,3.7366474
CuTcZr2,2.536,dft,jarvis_alex,,0.5304689757364679,162.76090576230916,316.5481872558594,4.0699773
AuMg2Rh,0.0,dft,jarvis_alex,,0.1796335464633117,134.26253410968042,242.32884216308597,2.1876574
AlMg3,0.367,dft,jarvis_alex,,0.3420970095965858,241.31542284376656,442.9037780761719,1.6917876
As2Ca2Ni2,0.028,dft,jarvis_alex,,0.2687902540024305,197.4424068396568,340.6385498046875,7.1117506
TiZn3,0.152,dft,jarvis_alex,,0.3140923306163434,202.52308713238432,276.8200988769531,3.540151
HfLiS2,5.072,dft,jarvis_alex,,0.7701393384809099,111.5063618716414,375.72552490234375,1.599066
CRu3Y,0.092,dft,jarvis_alex,,0.2925470191542891,243.891525186664,472.3321838378906,3.2263148
CaLiZn2,0.612,dft,jarvis_alex,,0.4015440310797061,140.10219379693743,305.2546691894531,3.1391795
OSc3Zn,0.004,dft,jarvis_alex,,0.2319959889627345,264.4183551815772,451.1131286621094,2.2617888
Al3LuNi2,0.322,dft,jarvis_alex,,0.3437966805429996,204.19367456980663,424.5790100097656,4.2190204
NiPRh,0.014,dft,jarvis_alex,,0.2524685075633819,231.8449123970434,409.07171630859375,1.6126218
LiMgYZn,0.003,dft,jarvis_alex,,0.2302616399148549,195.9114104305853,341.9040832519531,2.0331974
BHfRh3,0.0,dft,jarvis_alex,,0.0674377835801576,183.36919012287188,419.5066223144531,0.023810823
BeRhRuTa,0.0,dft,jarvis_alex,,0.0703306041515651,251.68939463344503,380.4039001464844,0.58475155
CrReV2,0.018,dft,jarvis_alex,,0.2509300960316002,317.96559546091487,467.1431579589844,3.140316
P2ScZr,0.342,dft,jarvis_alex,,0.3357631687470381,260.1018483379245,513.0426025390625,2.339363
GaZnZr6,2.319,dft,jarvis_alex,,0.5018433953358569,184.23421766228552,300.4443664550781,4.951946
PPdSr,0.892,dft,jarvis_alex,,0.4059938315347908,192.1247782832372,297.4441223144531,1.5866838
AlV2W,1.822,dft,jarvis_alex,,0.463449394644305,202.0334574534977,395.6179809570313,4.731664
ReVW2,0.202,dft,jarvis_alex,,0.316780892637254,249.6790219450101,377.7309875488281,1.3452388
HNi,0.005,dft,jarvis_alex,,0.2266020186392462,525.4049623305074,512.8431396484375,0.77782404
Al2W2,0.247,dft,jarvis_alex,,0.3263529516406707,236.45249378637115,453.3709716796875,1.6813514
Co3CrS4,2.267,dft,jarvis_alex,,0.5165432697177764,160.132370025168,300.3414001464844,6.1674867
Co2GaZn,0.0,dft,jarvis_alex,,0.1135193917915879,225.12341930310737,396.4344787597656,3.016113
OScTlY2,1.097,dft,jarvis_alex,,0.4216252615057308,192.4447773958813,299.1027526855469,3.00912
RuSnTcTi,0.055,dft,jarvis_alex,,0.2805300156099968,229.6908126261752,420.136474609375,3.2113707
AlCa2LaN,0.551,dft,jarvis_alex,,0.3946132435373871,139.48733120236065,325.5275573730469,5.969717
MnRh2Ti3,1.594,dft,jarvis_alex,,0.4452795677955263,213.1035944807616,407.3600769042969,3.9850886
BeRu2Ta,0.61,dft,jarvis_alex,,0.3726295350616407,220.39113898334656,372.9500732421875,3.74329
LiMoRh2,2.354,dft,jarvis_alex,,0.4932328474838833,200.2433067553132,404.8726501464844,2.8864727
C2Cr4Ga2,1.343,dft,jarvis_alex,,0.388749740799955,372.0149309424038,603.9141235351562,5.810042
LiMg2Sc,0.315,dft,jarvis_alex,,0.3430250528811563,203.250612220658,381.5860595703125,3.0378194
CuNiTiZn,1.443,dft,jarvis_alex,,0.4655310157389075,156.85709633052022,352.8300476074219,3.783596
CCaLiRh2,0.0,dft,jarvis_alex,,0.1702656904739455,311.0320380979464,401.1908264160156,0.8986182
InOSc3,0.191,dft,jarvis_alex,,0.3090656712098899,294.98950686919824,474.7187194824219,3.5932453
OsRu5,2.854,dft,jarvis_alex,,0.4831976417603643,264.8614905619493,525.4251098632812,3.9188805
Li3Si,0.863,dft,jarvis_alex,,0.3752791822858932,297.5169116450838,600.2362670898438,1.5562047
AlCuTi2,0.633,dft,jarvis_alex,,0.3689738693211066,243.98541958645504,475.3853454589844,3.9089978
CdMoRh2,1.83,dft,jarvis_alex,,0.4642379071871054,201.9562052359492,358.9122619628906,1.6193445
H3NiSc,0.337,dft,jarvis_alex,,0.3293620290248421,298.8417585648415,536.8480834960938,0.5031131
MgRh2W,0.651,dft,jarvis_alex,,0.3915684513870922,172.84973640664492,384.3747863769531,1.9992206
H2V2,0.168,dft,jarvis_alex,,0.2992822159063997,351.6944341283772,754.5650634765625,1.3947568
MoReTaV,0.014,dft,jarvis_alex,,0.2501070009924482,259.0902660742401,373.2650451660156,2.896523
CdRh2W,0.362,dft,jarvis_alex,,0.3533714453339601,187.8988526376905,332.9042053222656,1.348821
MoTcW2,8.893,dft,jarvis_alex,,0.7539138972521684,207.3342068951229,389.9790344238281,3.5285523
HfPtRh2,0.015,dft,jarvis_alex,,0.2546344667652633,212.7083093425552,345.7406311035156,3.0124624
InRh2Zn,0.0,dft,jarvis_alex,,0.0865677930202295,166.9286192468227,329.7479858398437,1.585605
CHgTi2,0.147,dft,jarvis_alex,,0.3106264243450053,215.8884427664443,443.7328796386719,2.5933015
HReRu2,3.123,dft,jarvis_alex,,0.5012518227497011,248.2565176202312,496.7936401367188,2.0964448
Mo2Pt4V2,2.508,dft,jarvis_alex,,0.4979015047729502,205.3640432253822,411.0525817871094,6.3299656
CoLuP,4.791,dft,jarvis_alex,,0.6295476963399838,175.92604498274892,350.0436096191406,3.2122493
ReRuV2,6.61,dft,jarvis_alex,,0.6189016459805695,256.3902629869645,440.0263366699219,4.1438856
N2Nb2,0.0,dft,jarvis_alex,,0.1886621709671522,418.8695244876593,700.0374755859375,0.788042
C4Sc2Ti2,0.024,dft,jarvis_alex,,0.2473578471928615,531.8086475328133,775.3209838867188,2.5021222
MoNi4Pt,0.013,dft,jarvis_alex,,0.2518096486520548,216.12806842243137,393.0824279785156,4.9897766
LiMg6Sc,0.003,dft,jarvis_alex,,0.230950704366925,202.3344208164208,389.8175964355469,5.5260034
MoPd3,0.087,dft,jarvis_alex,,0.2946783321777237,214.2370444290609,340.6475830078125,3.4061422
Al3Co2Pd,0.001,dft,jarvis_alex,,0.2146287931323222,201.3128800446473,554.0498046875,1.9545435
NbReTaW,0.001,dft,jarvis_alex,,0.2207044034567285,223.19791101130983,351.48114013671875,2.7461333
ScY2Zn3,1.247,dft,jarvis_alex,,0.4581421434193183,145.78400317833496,302.5798645019531,6.1579003
Li2SiSr,0.006,dft,jarvis_alex,,0.2441134966445622,158.6842813761921,393.7209777832031,0.62332773
CPbSc2,0.027,dft,jarvis_alex,,0.2697489795534153,180.774592812924,376.7043151855469,1.6733875
AlLiRh2,0.267,dft,jarvis_alex,,0.3384962879773041,190.48122347830247,413.3583984375,2.8192546
AlHPd2Pt,0.0,dft,jarvis_alex,,0.1964765730055888,88.78944577442908,294.6665954589844,0.8414357
As2C2Nb4,1.814,dft,jarvis_alex,,0.425755552446699,302.7752874165224,533.4470825195312,3.8628545
Rh6Ti2,3.437,dft,jarvis_alex,,0.5335157323626076,216.3109211759994,451.71575927734375,9.21258
AlMnOs,0.059,dft,jarvis_alex,,0.278486417665426,268.0361537363368,467.3935852050781,1.4619578
BeScSi,0.086,dft,jarvis_alex,,0.279402350436949,375.5055031917052,706.7152099609375,1.2575952
AgLiMg2,0.002,dft,jarvis_alex,,0.2262156734573381,235.81208551628347,338.2218017578125,1.4743958
Ni4ScZn,0.002,dft,jarvis_alex,,0.2264977717924204,193.35921951652625,407.8548889160156,3.5943666
MnOsSiV,0.165,dft,jarvis_alex,,0.3063061263825,276.6225056815331,458.0329284667969,2.2237418
MoReW2,6.114,dft,jarvis_alex,,0.6533723747745825,203.39110739113332,377.77972412109375,3.30844
MgNi4Sc,0.0,dft,jarvis_alex,,0.1785386233905269,236.506192034474,432.3481140136719,10.255302
AuGaZr2,2.108,dft,jarvis_alex,,0.5284893479314098,137.02890529140726,292.4510192871094,3.1010346
Hf2Tc4,15.367,dft,jarvis_alex,,1.1909593159684904,159.56144068046666,306.3711242675781,8.670488
Al4C2Ga2,2.985,dft,jarvis_alex,,0.526375084676871,196.4069334406636,607.7733154296875,1.2661599
Cl3KPd,0.937,dft,jarvis_alex,,0.4133585892038439,182.87295786822577,254.84767150878903,1.7812545
CuHfPd2,0.0,dft,jarvis_alex,,0.1541223842578928,174.9709388144018,304.6634521484375,1.7696091
CInY3,0.001,dft,jarvis_alex,,0.2216680443808366,195.97319311109,383.9214477539063,0.2925804
Os3Rh,2.086,dft,jarvis_alex,,0.4717948923943529,214.39571681131773,447.6878051757813,3.7399533
InRh2Ti,1.215,dft,jarvis_alex,,0.4686334601084205,128.1815727281826,353.3886108398437,5.045197
MnRhZr2,0.007,dft,jarvis_alex,,0.2404236236035928,227.23910632211803,335.3957214355469,1.2042184
Al2HfZn,0.0,dft,jarvis_alex,,0.1922936509318872,244.7507591767809,364.6573791503906,0.9384971
CdTi2W,2.182,dft,jarvis_alex,,0.4822481464573717,203.64900333548616,322.5022888183594,3.4991663
PtRhRu,2.212,dft,jarvis_alex,,0.4783105554067721,214.2430736811204,392.8772888183594,3.8721077
AlTiZr2,3.348,dft,jarvis_alex,,0.5349758505941979,208.6821920532577,409.2050476074219,3.921395
Al4Nb2Sc,0.174,dft,jarvis_alex,,0.3114165921673516,250.6477288811485,523.736572265625,3.133522
CrMoW2,0.102,dft,jarvis_alex,,0.2927174476107024,269.0633485685378,379.3663635253906,1.0229511
CInNi3,7.373,dft,jarvis_alex,,0.9566917576017928,105.75147119847574,406.3091735839844,3.679287
Mo6Pt2,12.24,dft,jarvis_alex,,1.5299075794983288,91.09053510536144,343.90106201171875,12.141777
Fe4Si4,0.003,dft,jarvis_alex,,0.2250439369850427,371.560014779411,696.2099609375,6.0305963
BeOsRhV,0.0,dft,jarvis_alex,,0.1796595225948178,265.06547784556227,421.2747192382813,0.56768566
Co3MoZr2,3.69,dft,jarvis_alex,,0.5760117958527814,178.29349815585863,382.2356567382813,6.4293323
Be2GaRh3,0.0,dft,jarvis_alex,,0.1976443269168798,263.97548011135933,466.4637756347656,2.9708295
GaNiSi,0.439,dft,jarvis_alex,,0.349099522565781,248.29238038281247,359.47772216796875,1.2622272
OsRhW2,3.018,dft,jarvis_alex,,0.5436494432654477,177.57490021152748,396.713134765625,2.9417348
B6Sr,0.0,dft,jarvis_alex,,0.1902679938313066,490.5425774632865,850.4368286132812,0.6361748
MoTaW2,0.001,dft,jarvis_alex,,0.2168267344285091,225.82359220849693,350.3071594238281,1.5694025
Al3Ni2,0.0,dft,jarvis_alex,,0.1383632181054566,326.055646866688,582.4237060546875,1.3076462
AlReV,1.747,dft,jarvis_alex,,0.4316556244099491,272.18147301213173,464.221923828125,1.625402
Cu3Si,0.062,dft,jarvis_alex,,0.2832062285515414,231.8795751090906,400.9714660644531,1.7147685
CuRh2Ti,0.411,dft,jarvis_alex,,0.3684603806136692,159.7870715691352,368.1920471191406,2.3968282
C2Zr3,0.008,dft,jarvis_alex,,0.239427365846761,312.76468730534384,597.8434448242188,2.932268
MgRh2Ti,0.0,dft,jarvis_alex,,0.1261030402283021,239.9113716136054,398.2707824707031,2.012507
AlCdSc2,0.0,dft,jarvis_alex,,0.1890711592398906,187.7304303899109,345.2356262207031,3.2268314
CdInZr6,1.2,dft,jarvis_alex,,0.4350507825043708,179.95217976580693,287.6832275390625,4.4803724
AlCo2Zn,0.0,dft,jarvis_alex,,0.1144643396704672,262.4083704636081,500.5325622558594,2.737819
Al2NiOs,0.0,dft,jarvis_alex,,0.1394687026879337,261.9578827467332,435.8681335449219,1.2514426
RhSbSc,0.4,dft,jarvis_alex,,0.3574597720798958,191.295932134366,306.9725952148437,3.3186386
Cu2HfIn,0.076,dft,jarvis_alex,,0.3069507553111839,125.08568426359372,278.3917541503906,1.7788678
NbTa2Tc,1.174,dft,jarvis_alex,,0.4236050539326716,201.32840718047697,325.94732666015625,3.2043276
Al3AuPd2,1.086,dft,jarvis_alex,,0.4588539451975225,125.82933401977438,317.8174133300781,0.8725616
FeMgSc2,0.002,dft,jarvis_alex,,0.2254950998908531,230.4694346805965,386.73046875,1.9576718
CoHf2Tc,0.002,dft,jarvis_alex,,0.2244769561853881,204.8764904484813,304.16583251953125,1.6713266
OsSc2Sn,0.063,dft,jarvis_alex,,0.2973202533166791,141.2008212302153,304.4809265136719,1.0833164
MgMoTi2,6.333,dft,jarvis_alex,,0.6871661354078699,183.65846792130287,424.7290344238281,4.5321407
BRe,0.011,dft,jarvis_alex,,0.2398681032652143,395.9666068982571,558.0267333984375,0.51916337
Cu2Sc2Y2,1.238,dft,jarvis_alex,,0.4617457317013126,139.60685340820868,273.67510986328125,9.067388
CaH6Rh2Sn,0.001,dft,jarvis_alex,,0.2121653334680797,487.04536839388334,446.016845703125,1.248047