formula,Tc,tc_source,dataset,pressure_gpa,lambda,wlog,debye_temp,dos_ef
V2W,5.107,dft,jarvis_alex,,0.5924789582149882,225.2009523667641,396.48193359375,3.7076492
AlCuScZn,0.039,dft,jarvis_alex,,0.2787062987416715,175.57989458348578,360.5319519042969,1.8889467
CHf2Te,0.0,dft,jarvis_alex,,0.1557374028344853,275.96176706192705,324.2300109863281,0.74096495
Al2Sc3Zn,0.012,dft,jarvis_alex,,0.2544239490181149,179.86339983589076,417.6044616699219,4.252594
TaTc2Zr,0.046,dft,jarvis_alex,,0.2753535742245542,238.452699460084,369.99114990234375,2.9630191
HfIn2Zr,0.136,dft,jarvis_alex,,0.3212199119645086,149.2053989626045,268.6210632324219,2.9682713
CCdTi2Zr,0.107,dft,jarvis_alex,,0.2985649345927353,230.55146150659348,461.2271118164063,3.4098868
MoNbTi,8.055,dft,jarvis_alex,,0.7288275269443415,202.41232945336105,377.89886474609375,3.8178997
MoRh2W,0.886,dft,jarvis_alex,,0.3942171508737774,226.3918512412244,447.6338806152344,2.9329028
B2Ir2,0.0,dft,jarvis_alex,,0.1885607544531105,299.4428782405141,458.0187683105469,0.55102116
Ni4Si2Ti2,0.0,dft,jarvis_alex,,0.2086931007606071,292.8038216409757,466.9093322753906,6.2600594
Nb2PdRh,3.55,dft,jarvis_alex,,0.550333445422412,200.25023438524343,385.618896484375,4.0705767
Mn2NbTa,0.0,dft,jarvis_alex,,0.1957594958884419,290.0840572047541,376.3654479980469,1.1949061
AlAuTi2,0.906,dft,jarvis_alex,,0.4067617815598969,193.00861497346423,338.5947570800781,4.796979
BiHRh3,0.019,dft,jarvis_alex,,0.2626952559641245,175.03007516669567,288.6106872558594,3.3285968
GaNi3Zn2,0.055,dft,jarvis_alex,,0.2942550140704666,136.59793070802388,347.94244384765625,4.3892384
Al2Ga3Y,0.629,dft,jarvis_alex,,0.3981000637840121,151.30925240659738,379.4361877441406,1.7293487
Cu2KLuP2,0.0,dft,jarvis_alex,,0.1776408786841777,198.30773606465044,313.0936584472656,1.0605642
CaHg2Sc,0.247,dft,jarvis_alex,,0.3674943175679998,97.4787013518635,181.0525054931641,3.2336802
Ni3W,0.043,dft,jarvis_alex,,0.2736479442341601,238.6142583093209,414.1300354003906,3.0088243
Nb6PdPt,14.154,dft,jarvis_alex,,1.2165589772713246,142.4485826975077,362.9917602539063,8.246046
Co2MgP2,0.004,dft,jarvis_alex,,0.2302425411570379,312.5322150212696,554.3583374023438,2.4461164
CdZn2Zr3,0.815,dft,jarvis_alex,,0.434050396199958,123.34281975266204,301.7962646484375,1.7575687
Al2AuHf,0.14,dft,jarvis_alex,,0.3206327154161493,155.0688786153856,298.044677734375,1.7777295
AlGaY,0.634,dft,jarvis_alex,,0.3944712213523935,160.86832209292723,395.0826416015625,0.7859779
CuReTi2,0.321,dft,jarvis_alex,,0.3366048836025979,239.19162423747883,330.7208251953125,3.9914584
CoGaHfRu,0.0,dft,jarvis_alex,,0.069548934980982,226.45865095314213,384.1466369628906,1.0251023
GeRhRuSc,0.0,dft,jarvis_alex,,0.0555281955284019,258.11113448044256,416.1891174316406,0.9387553
CdReRh2,0.261,dft,jarvis_alex,,0.3359525466806096,197.9980586649492,351.5915832519531,3.192435
Cu2GeLi,0.014,dft,jarvis_alex,,0.2555448563342623,195.1218057012024,335.755615234375,1.1145023
CaHg2Mg,0.671,dft,jarvis_alex,,0.4448023538525226,90.0082674271506,163.89266967773438,2.2253468
ReTiV4,0.253,dft,jarvis_alex,,0.3187162289805876,295.6973166060889,384.5002136230469,2.0867147
B2Cr4,4.71,dft,jarvis_alex,,0.5068795541936921,359.2038359052613,820.624755859375,4.8026624
PdRuSc2,0.0,dft,jarvis_alex,,0.1339273896879168,234.5739359136961,355.1622619628906,0.90181565
FeHf2Tc,0.001,dft,jarvis_alex,,0.2190070055270961,224.9709319465293,317.33404541015625,2.923365
MgNaTl2,2.093,dft,jarvis_alex,,0.6501716431936327,70.05261794992913,144.12754821777344,2.639534
MnReV2,0.283,dft,jarvis_alex,,0.3203512588860913,316.5196851016613,473.85150146484375,2.014832
H2Y,0.008,dft,jarvis_alex,,0.2373689450396077,333.3778773490491,543.240478515625,0.7403115
CuRuY2,0.027,dft,jarvis_alex,,0.2731879007812142,155.81038218292886,275.1375427246094,2.2374344
GaLiScY,0.03,dft,jarvis_alex,,0.2697820288615087,196.8058204226702,345.00946044921875,3.791928
B4Mo2,0.732,dft,jarvis_alex,,0.3466407608780645,435.88029611070704,886.7474365234375,2.701011
NSc2Tl,0.031,dft,jarvis_alex,,0.2657833028606708,249.09210894794776,327.1111755371094,2.3885088
Al2LaNi2,1.597,dft,jarvis_alex,,0.4776648324625972,155.084539544978,401.4262390136719,4.5094085
LiPt2V,0.97,dft,jarvis_alex,,0.4061113097390899,208.7571419974668,317.5855407714844,2.507216
MoReV2,0.036,dft,jarvis_alex,,0.26523921818089,299.19549141745,434.5779113769531,2.7763608
NbTc2V,0.335,dft,jarvis_alex,,0.3315576660649594,281.35725234739294,423.6249084472656,2.4221966
GaLiMgSc,0.02,dft,jarvis_alex,,0.2595612979545937,220.05823274566995,364.93890380859375,2.6289058
CaP2Zr,0.0,dft,jarvis_alex,,0.1994624357442387,289.835738445635,438.6214904785156,0.64404994
NbTa2,10.858,dft,jarvis_alex,,0.9841417742887946,150.19626840865638,248.5069122314453,4.6852007
AlLuRh2,0.0,dft,jarvis_alex,,0.1314751733084601,192.63727117342577,337.5358581542969,0.8477963
CuGa2Ta,0.003,dft,jarvis_alex,,0.2312567013784038,182.6973622489206,351.3374938964844,0.8446338
Al2LuY,0.149,dft,jarvis_alex,,0.3270530856587276,139.69635106167,298.4657592773437,1.6982414
AlPd2Zr,1.139,dft,jarvis_alex,,0.4423047590461036,157.2183939006721,324.4472045898437,2.8750627
Ba3KPt,0.0,dft,jarvis_alex,,0.1455869541608226,68.87081738109178,107.4378433227539,3.7346427
RuZnZr2,0.822,dft,jarvis_alex,,0.404200096164404,181.7768440796279,342.0419311523437,1.9537908
Ni5PSi,0.001,dft,jarvis_alex,,0.2114942906934248,228.8509343066167,446.6167297363281,4.5430703
In2N2Sc4,0.036,dft,jarvis_alex,,0.2680795687701635,257.4859805799233,417.4829406738281,5.905495
ReTc8,16.27,dft,jarvis_alex,,1.0344971631678903,209.6219590338148,473.9263916015625,10.353241
CaCuInLi,0.591,dft,jarvis_alex,,0.3950774285214748,148.6688251778436,273.2006225585937,2.6866007
PtTi2V,2.6,dft,jarvis_alex,,0.4883971420674385,230.13501344827,347.69952392578125,3.9616916
Al2RhRu,0.0,dft,jarvis_alex,,0.1657254515256394,279.42792346653465,526.566650390625,1.8894709
H3NaPd,6.149,dft,jarvis_alex,,0.4156921069353994,1164.7619931795464,385.9991149902344,0.64189756
CaRh4Y,1.982,dft,jarvis_alex,,0.4891478815571387,174.6814665847317,326.6510925292969,7.094296
B2CoNiSc,0.059,dft,jarvis_alex,,0.266959857129289,448.3068798423099,693.59765625,2.028339
Be2LaP2,0.037,dft,jarvis_alex,,0.2706007785803285,237.91738570157395,525.2064208984375,1.7066996
AlFeReW,0.004,dft,jarvis_alex,,0.2314710687792771,250.55382332071284,396.3570251464844,1.5587848
CoRuSc2,0.0,dft,jarvis_alex,,0.1857573513494578,238.4143999062747,403.8179016113281,3.0879288
SnTi2W,0.092,dft,jarvis_alex,,0.2944132563772266,228.87898638184663,353.3456420898437,2.2821913
CuInNi2,0.0,dft,jarvis_alex,,0.1302814431268961,179.44337443444175,342.8848571777344,1.5304297
Ni2Pt2Si2,0.0,dft,jarvis_alex,,0.1407179325315769,177.4173607731223,326.6907043457031,0.6422303
Ru2YZr,0.0,dft,jarvis_alex,,0.1978522628065683,204.9232787688754,338.8919982910156,2.0961897
Co3HHf,0.0,dft,jarvis_alex,,0.1957903815281542,312.56936560597177,460.1058654785156,3.9791217
Li2P2Rh2,9.147,dft,jarvis_alex,,0.8929639843578948,148.85689382759384,389.3624572753906,4.2542706
MoNbV4,1.068,dft,jarvis_alex,,0.3942520354256182,272.58533818464383,289.60015869140625,4.0973415
Ge2V2Y,0.029,dft,jarvis_alex,,0.2672198686423155,217.32768155866447,395.3208312988281,2.6009254
GaMgRh,0.019,dft,jarvis_alex,,0.2636954828592512,169.42750709654482,363.2037048339844,1.1410148
AlCa3O,0.004,dft,jarvis_alex,,0.2337025786585394,233.62129702348275,365.3849182128906,3.9419687
Pt2TaTi,1.32,dft,jarvis_alex,,0.4412427461646003,184.45082860684929,342.4110412597656,3.6140504
CCdSc2Ti,0.22,dft,jarvis_alex,,0.3229100803516223,229.5074967617726,475.733642578125,4.263647
InLi2Sc,0.0,dft,jarvis_alex,,0.2082752129931088,175.7361671666032,306.9991149902344,1.37786
TaTc2Zr,0.027,dft,jarvis_alex,,0.263364557027859,243.01093634358568,374.2145080566406,3.2630596
NbZnZr2,9.27,dft,jarvis_alex,,0.8697381365585968,160.21651604708651,306.96734619140625,4.4381166
Os5Ta,2.511,dft,jarvis_alex,,0.4984130079309827,205.1268013393688,403.4107360839844,6.065368
CuPd2Zn,0.0,dft,jarvis_alex,,0.0862523001781993,167.70122533116472,308.9595642089844,0.6922967
LiPtRhTi,0.0,dft,jarvis_alex,,0.1619500989604274,212.0703405783541,318.9072570800781,1.328714
HfRu2Y,0.0,dft,jarvis_alex,,0.1636107309443863,194.4672831496969,306.45147705078125,2.0717933
AlLi7,1.883,dft,jarvis_alex,,0.4571252441039182,222.34532155908923,489.6477355957031,3.2897549
Re2TiV,0.046,dft,jarvis_alex,,0.2729284271731317,263.2532727942855,404.7651672363281,2.978766
HfMoZn4,0.011,dft,jarvis_alex,,0.2505505193266463,207.33175670248104,377.5998840332031,3.909389
Ti2,18.124,dft,jarvis_alex,,1.1553272151635443,197.32700528992487,328.6898803710937,3.3742232
PdPt2Ti,0.0,dft,jarvis_alex,,0.1595212348155252,198.3161883677537,366.7100524902344,1.1141868
Ag2AlLi,0.017,dft,jarvis_alex,,0.2595600837893995,190.17397655096195,276.5721130371094,1.1702096
B2Ni2Zr,0.278,dft,jarvis_alex,,0.3117805228994952,395.46411072576814,652.8448486328125,2.153587
Be4MoV,0.749,dft,jarvis_alex,,0.3498610727294901,417.1076848664208,822.934814453125,3.3030999
Ni2P2Zr2,1.195,dft,jarvis_alex,,0.4104381295085072,242.78243581242972,482.2634887695313,4.0882807
BeCo2Ga,0.0,dft,jarvis_alex,,0.1427339327703443,285.5929406163124,554.6172485351562,4.5245647
BeOsRh2,0.449,dft,jarvis_alex,,0.3567495174703495,217.49209200830168,471.7014465332031,1.2158281
PdRhSc2,0.008,dft,jarvis_alex,,0.2489464953769589,157.30688970524147,312.6590576171875,3.4888134
CdRh3Zn2,0.001,dft,jarvis_alex,,0.2186744245732085,161.03072208165267,320.1228942871094,7.092094
NbReTaTi,3.365,dft,jarvis_alex,,0.5294791939612263,217.6532802287099,322.3061828613281,5.248758
H3NaNi,0.013,dft,jarvis_alex,,0.2264565978855123,1304.8093729187954,535.2625732421875,0.8006718
AlLiMgPt,0.061,dft,jarvis_alex,,0.2845103769105486,217.7187664036946,303.3649597167969,1.4366431
Mo4NbTa,0.125,dft,jarvis_alex,,0.3012189781767639,245.98417236430708,355.63006591796875,2.4941816
GaRuTcV,1.293,dft,jarvis_alex,,0.4195041184460667,233.6520135318955,453.2653503417969,2.697175
B2Mg4,0.081,dft,jarvis_alex,,0.277947596745267,376.91697302901696,651.594482421875,1.9097553
H2Hf,1.406,dft,jarvis_alex,,0.5476396205216103,80.4828393920676,321.9771423339844,1.1641374
PtRu2,2.58,dft,jarvis_alex,,0.4814631266794542,243.0729945343808,428.6225280761719,2.7163157
NbTaTc2,0.0,dft,jarvis_alex,,0.2074047629088883,265.7450073608152,391.1097717285156,1.4013027
HfTaTc2,0.017,dft,jarvis_alex,,0.2551473330749703,232.53574597277503,353.6601257324219,3.1201065
Al2FePd,0.0,dft,jarvis_alex,,0.1290815385233052,293.82282939465466,481.0201721191406,0.9725972
CrRhV2,3.056,dft,jarvis_alex,,0.4964549201309964,253.2192723019138,456.3995056152344,3.1101599
InRhRuTi,0.0,dft,jarvis_alex,,0.0739873797091416,235.92467713152183,379.5444641113281,0.8395152
LaS2Y,0.463,dft,jarvis_alex,,0.3663326049850561,186.9658591467882,346.3714904785156,1.7801137
CMoTa,0.198,dft,jarvis_alex,,0.3090239423349424,305.43126167053424,501.3230285644531,1.2925866
AlCr4W,0.974,dft,jarvis_alex,,0.3760017056615241,332.12192282738783,457.3085021972656,3.7789538
Cu2Ru2Sc4,0.002,dft,jarvis_alex,,0.2247232870186557,215.1984462888821,356.6669616699219,3.0163183
RuTi2Zr,3.105,dft,jarvis_alex,,0.5072662892886685,236.3269657985585,416.0135803222656,4.0132494
NPdV3,3.37,dft,jarvis_alex,,0.5225510748628991,228.2652818691008,488.4590148925781,4.7555103
AlLiPdZn,0.185,dft,jarvis_alex,,0.3220168765931551,197.5676236288884,333.7459411621094,1.220995
AlHf2Mo,1.437,dft,jarvis_alex,,0.4541152064188222,175.0842590021612,285.0672912597656,4.16604
AlRh2Ti,1.766,dft,jarvis_alex,,0.4876009750297724,157.24357257752106,427.9789123535156,3.1443238
InMoZr2,3.669,dft,jarvis_alex,,0.6005143698542071,155.37920214304307,289.28924560546875,3.5388463
AuZr3,1.916,dft,jarvis_alex,,0.5353446963727798,118.67994133131766,253.0781707763672,3.1147242
Pd2Ti6,6.516,dft,jarvis_alex,,0.6586526223555678,211.73818151034288,345.4038391113281,11.092622
HLa2N,1.787,dft,jarvis_alex,,0.4534015892814,218.8484035615097,369.58587646484375,1.6314011
Al2CuPd,0.067,dft,jarvis_alex,,0.2927478443097309,175.68209445158118,403.421875,0.88544726
AlReTi2,0.006,dft,jarvis_alex,,0.2364808769122282,260.9802415924579,394.6196594238281,0.98827696
Cu6LiNi,0.0,dft,jarvis_alex,,0.1306672629694923,221.9724435042876,343.7940673828125,3.4440536
CrNbRuTa,0.008,dft,jarvis_alex,,0.2405375948164082,261.74109617339866,362.7685241699219,2.0812063
GaNbTi2,3.174,dft,jarvis_alex,,0.5160971601793244,225.8839152441097,310.1170349121094,3.6993964
CInScZr2,0.094,dft,jarvis_alex,,0.2963722260829532,216.88115966394545,478.0910339355469,2.8149557
Al2CuTc,0.353,dft,jarvis_alex,,0.3577688907185781,167.47871519408324,477.8810119628906,1.6896102
Mo3Ti4,17.506,dft,jarvis_alex,,1.2185549717485946,176.05758149183046,403.4074401855469,12.544601
KO3Tc,0.0,dft,jarvis_alex,,0.167357073618559,450.3127512251233,606.1925048828125,1.8904455
OsScTaTc,0.166,dft,jarvis_alex,,0.3137739741418012,223.454841759842,364.2388000488281,3.293276
CoGaGeLi,1.119,dft,jarvis_alex,,0.426856609488261,184.5091230344248,399.9916076660156,1.4220358
CuLi2O4Sc,41.501,dft,jarvis_alex,,1.6023096166616044,293.98327796558465,626.045654296875,1.6804624
CuGaPtRh,0.0,dft,jarvis_alex,,0.1152924075509083,163.432419516558,310.6654357910156,1.1472728
NbTcZn4,1.47,dft,jarvis_alex,,0.452524724191872,182.18477935214483,406.9269409179688,2.9669833
Nb2OsV,0.007,dft,jarvis_alex,,0.2401737512180866,260.8747750314288,363.8445129394531,3.311225
CHf2In,0.0,dft,jarvis_alex,,0.2063516395827476,204.01881792102856,367.4725036621094,1.0143522
NbPtZn,0.945,dft,jarvis_alex,,0.4103996430801898,192.18182409431049,331.6123046875,1.5927651
HPd3Sc,0.0,dft,jarvis_alex,,0.0761823078170903,269.8519683148123,326.0919189453125,0.26996043
Al2CrZn,0.0,dft,jarvis_alex,,0.1421383408309845,326.7720766300723,541.4771728515625,0.9803351
C2Ga2Nb4,0.307,dft,jarvis_alex,,0.3263879191651158,293.3540489978693,543.4588012695312,2.0600166
MoTc2Ti,0.312,dft,jarvis_alex,,0.3293855452691127,277.11977379871354,454.3647766113281,1.6032652
MgRhTe,0.913,dft,jarvis_alex,,0.4280050403034768,148.43765288566362,258.1311950683594,1.8639824
HPtRuV2,3.805,dft,jarvis_alex,,0.5224659619564699,257.7217538624261,439.7955017089844,3.7935355
OsTa2W,0.014,dft,jarvis_alex,,0.2535632080173645,213.9609106230876,342.9487609863281,1.4906079
B2CaCo3,0.0,dft,jarvis_alex,,0.2018722671802759,344.21842058736394,598.7036743164062,2.311422
InSc2Tc,1.546,dft,jarvis_alex,,0.4669360548226597,165.82680929203693,303.8814392089844,3.5896924
NbSi2TcY,2.645,dft,jarvis_alex,,0.5266836696269946,173.9341922493367,418.477783203125,2.6449661
NiSc2Zn,1.003,dft,jarvis_alex,,0.4403854224200044,141.2726242876532,345.7413635253906,2.654004
HMo2OsRh,8.339,dft,jarvis_alex,,0.7359985758624221,203.61317826682745,421.7920837402344,3.2333515
BBeTa,0.0,dft,jarvis_alex,,0.0773959791569691,351.9627394077686,630.3237915039062,0.20244804
S3SiY4,0.117,dft,jarvis_alex,,0.3011114204553741,230.5808795914703,390.5188598632813,3.428274
HInTi2Zr,3.844,dft,jarvis_alex,,0.55310436006452,212.21882364995284,407.4504089355469,4.1321187
BPbSc3,0.0,dft,jarvis_alex,,0.1601381237793065,324.73908462996445,406.8547668457031,0.53058714
Mo8Tc4,19.145,dft,jarvis_alex,,1.290149302581859,179.91990918349538,431.8912048339844,11.632605
Co2ScSi2,0.0,dft,jarvis_alex,,0.2024618014651245,313.9567859111252,572.1754760742188,2.744949
CuZn3,0.016,dft,jarvis_alex,,0.2584592231619764,184.81214512133047,306.54962158203125,1.0190364
ReTiV,1.575,dft,jarvis_alex,,0.424936633930573,265.8429430301041,389.2739562988281,3.7325077
AlRu3V2,5.63,dft,jarvis_alex,,0.6053103549335728,233.1935405964489,449.912353515625,3.6583254
Mo2TiV,8.817,dft,jarvis_alex,,0.7445248840695151,210.53755427542745,449.3891296386719,5.267718
Rh5Ru,0.933,dft,jarvis_alex,,0.388428731624298,260.43555870160304,474.4375,6.4456716
TcTi2Tl,0.182,dft,jarvis_alex,,0.3180672129877698,216.6342628497292,315.8525085449219,1.8514432
OsPt2Rh3,1.76,dft,jarvis_alex,,0.4723342471322523,179.67637117959626,367.9573059082031,7.995896
RuSbZr,3.79,dft,jarvis_alex,,0.5893302295513045,170.35447847896864,284.0997619628906,4.9501233
CoGa2LaZn,0.042,dft,jarvis_alex,,0.292905321697452,108.334682721588,314.4920959472656,1.6321818
NbOsRh2,0.773,dft,jarvis_alex,,0.3852092367389565,226.79312204234563,434.2370300292969,3.423341
MgP2Ru2,0.265,dft,jarvis_alex,,0.3247766869558539,263.7606874360613,458.0069274902344,1.6741917
ReRhTi2,0.001,dft,jarvis_alex,,0.2115199180421999,260.9332516752126,371.2320251464844,1.6267921
OsRu2W,4.093,dft,jarvis_alex,,0.5607340660230029,216.6723812460397,447.6520080566406,4.24727
Li2PdZn,0.153,dft,jarvis_alex,,0.3182090093858747,181.4927331871369,301.3803405761719,2.0447876
InLiRhZn,0.18,dft,jarvis_alex,,0.3363656962301808,134.45790313876788,306.13629150390625,1.704095
Al5CoHf,0.01,dft,jarvis_alex,,0.2445378802169316,263.81761696571976,431.1415710449219,3.3222165
Al2CuRh,1.104,dft,jarvis_alex,,0.4325588095511772,169.88397369611516,419.8936462402344,1.4984143
TcZr,1.452,dft,jarvis_alex,,0.4365283509100677,214.1783883052508,359.32391357421875,2.5283985
Al2TaTi,1.951,dft,jarvis_alex,,0.4956189913863816,162.20411805567906,463.2193298339844,2.441303
BeRu2V,3.274,dft,jarvis_alex,,0.50651936974479,250.41718309214733,446.7060241699219,2.3572586
AgLi6Si,0.325,dft,jarvis_alex,,0.3376251207423229,236.7365928828714,335.0758056640625,2.9402552
MoNb2V,6.221,dft,jarvis_alex,,0.6435675715117214,215.32195126961545,316.52490234375,4.9782925
Hf2N2,1.364,dft,jarvis_alex,,0.4017464001089399,311.39801787071684,475.4275817871094,2.0922666
Ni6SnV,0.0,dft,jarvis_alex,,0.1833085749244184,254.4657437604247,456.6307067871094,4.772602
B4Nb2,10.74,dft,jarvis_alex,,0.6468038125317132,365.0176858207356,829.0118408203125,1.3545365
Al3Y,0.032,dft,jarvis_alex,,0.2641996861928778,274.0725041052596,479.5933532714844,1.5613192
CuOsSc2,0.001,dft,jarvis_alex,,0.2192908538249877,202.8083285208681,318.2757263183594,2.3153872
Li2Mg2,0.126,dft,jarvis_alex,,0.301821472490094,243.9085227104148,436.9613952636719,1.7157261
Al4Ca2,0.476,dft,jarvis_alex,,0.3485818240452866,272.59067492677843,481.6688232421875,3.796959
Al4Y2,0.025,dft,jarvis_alex,,0.2616695627070465,247.25732223622475,472.6686706542969,4.3976765
Be4TcZr,1.333,dft,jarvis_alex,,0.39424743511456,339.5284969668116,674.26904296875,3.7290514
CuPd2Sc,0.0,dft,jarvis_alex,,0.1487073310634399,189.3949873452595,320.48992919921875,1.2666947
AlLiPt2,0.0,dft,jarvis_alex,,0.142089255274023,181.60564218462656,326.2348022460937,0.8302414
Mo6Tc2,16.263,dft,jarvis_alex,,1.123095712621755,184.0673815892837,418.7957458496094,7.142983
CuMg2Pd3,0.0,dft,jarvis_alex,,0.1141558277612054,185.5029894427524,317.83056640625,1.3692487
Al2OsRh,0.0,dft,jarvis_alex,,0.1611773312443229,250.87950792149067,447.1535339355469,1.4499007
HfTcTi2,8.023,dft,jarvis_alex,,0.744622544228272,191.72182118744624,336.2953491210937,4.38103
GaIn2Zr,0.001,dft,jarvis_alex,,0.2244648753624767,161.70022430123913,310.8989562988281,1.5049301
Cl3Na4,0.0,dft,jarvis_alex,,0.1938961829186252,129.8390419472076,285.0394897460937,0.6951055
Cr2NiRu,4.683,dft,jarvis_alex,,0.5487184464523167,266.862193272832,468.18115234375,2.9968176
LiRh2Sn,0.0,dft,jarvis_alex,,0.1052305385973578,189.8021079750318,313.1644897460937,1.4727582
Hf2Ni4Si2,0.005,dft,jarvis_alex,,0.2347440579109476,248.6529017292497,372.8992919921875,6.1489067
HfLuRu2,0.0,dft,jarvis_alex,,0.1734249102722011,198.49439643314625,302.3915710449219,2.0376136
Cu2Sc2,2.669,dft,jarvis_alex,,0.637521563359668,94.31666810150492,360.8919372558594,1.9675655
In2Ti6,2.552,dft,jarvis_alex,,0.4900696832852302,222.95099358219068,382.8833312988281,7.431239
B2N2Ru2Y2,11.924,dft,jarvis_alex,,0.837921083519494,219.4219303651519,469.3250122070313,2.3881915
OsSi2Tc,3.951,dft,jarvis_alex,,0.5454318835497628,229.4133739054624,401.1504211425781,2.7644396
BeCo2Os,0.353,dft,jarvis_alex,,0.343117078237812,227.32572950817848,552.984619140625,1.7637112
AuCZr3,1.212,dft,jarvis_alex,,0.4901211300327639,105.43809105534244,385.9863586425781,2.5487812