formula,Tc,tc_source,dataset,pressure_gpa,lambda,wlog,debye_temp,dos_ef
RhRuSnZn,0.0,dft,jarvis_alex,,0.1157373464197318,192.58093974318103,359.64337158203125,2.0147898
TiV2W,14.24,dft,jarvis_alex,,0.9148666694699928,224.12444436580924,363.5545043945313,6.7225113
CoPRh,0.0,dft,jarvis_alex,,0.1733159929514771,259.45471957794143,439.6487121582031,1.4087187
Nb2Re,0.001,dft,jarvis_alex,,0.217251708387601,249.67149562406328,330.0098571777344,1.2873058
MoScTc,0.011,dft,jarvis_alex,,0.2463064178252263,269.3026579845898,401.6500854492188,1.8144275
GaNZr2,1.053,dft,jarvis_alex,,0.4166519269825248,196.55014492433253,474.1252136230469,2.3547359
Al2H2La,1.348,dft,jarvis_alex,,0.3950592012573869,339.08750163542777,422.7145080566406,1.3166515
NbRh3,0.02,dft,jarvis_alex,,0.2567318794867184,251.4679647334684,492.16204833984375,3.057739
Hf2Si2Ti2,0.637,dft,jarvis_alex,,0.367124094581769,253.79323996114093,402.6602478027344,5.3162045
Cd2NaPt,0.015,dft,jarvis_alex,,0.2691220619109419,102.44460730056431,181.7744903564453,1.5803151
OsRe,1.812,dft,jarvis_alex,,0.4532723589931081,223.1889109532717,433.5380554199219,2.1336632
MgPd2Sc,0.042,dft,jarvis_alex,,0.2866293610565899,137.470069533428,295.5160522460937,2.562434
InLiNiZr,0.0,dft,jarvis_alex,,0.039534992458771,237.88775391876783,324.9175720214844,-0.083299
BeRu2Ta,1.854,dft,jarvis_alex,,0.4643813187323917,203.87499456994803,414.2978515625,2.9527586
BC2Y2,0.866,dft,jarvis_alex,,0.3728348489748,311.0838093796965,475.4666442871094,2.8375666
Al3Co2Cu,0.0,dft,jarvis_alex,,0.131234169897692,288.4251359909534,575.787109375,2.9278116
NiPdSc2,0.376,dft,jarvis_alex,,0.3675863156733515,148.29727638984477,343.0800476074219,3.491726
As2C2Hf4,2.716,dft,jarvis_alex,,0.4834814846491826,250.24676123134097,416.1215515136719,3.8038318
GeRu2Sc,0.067,dft,jarvis_alex,,0.2882432003207862,208.6148976959056,443.8478698730469,2.2160919
Os2Ta6,0.568,dft,jarvis_alex,,0.3780055869530648,187.4318927402213,310.5244445800781,7.949024
Co2LiP2Sc,0.372,dft,jarvis_alex,,0.3341599909980709,293.32944167652226,559.77001953125,3.0391912
BeGaRh2,0.0,dft,jarvis_alex,,0.1349272520660574,247.3120076970361,466.2087707519531,1.1908368
Co2NbP2,0.227,dft,jarvis_alex,,0.3193582911892725,261.37251818919634,520.273193359375,3.373897
Al6MoZr,9.457,dft,jarvis_alex,,1.1298776568823188,104.432103414127,585.338623046875,2.3114321
MnMoTa2,0.005,dft,jarvis_alex,,0.2366201761468029,245.9038385397625,338.6619873046875,2.7483041
Hf3N2,1.295,dft,jarvis_alex,,0.4072668650747353,273.90199859999643,376.9813537597656,1.507746
Al3NiRu2,0.052,dft,jarvis_alex,,0.2787890395427072,231.1181545820184,507.7201843261719,3.7576783
FeSc2,0.0,dft,jarvis_alex,,0.2011540730144057,222.1769699551636,373.332275390625,1.4202642
CaP2Tc2,0.195,dft,jarvis_alex,,0.3127320936291724,269.669413935319,469.4460754394531,4.0314703
OsRh6Zn,0.491,dft,jarvis_alex,,0.356346783505938,239.8613493492145,417.1671752929688,8.505724
Ca3NPb,0.002,dft,jarvis_alex,,0.2265279376355159,191.2170707862223,334.6459045410156,4.5484285
Ga3NiRu2,1.261,dft,jarvis_alex,,0.4510153525670473,158.71095860344212,385.0843505859375,4.991222
Fe2LuP2,0.0,dft,jarvis_alex,,0.2066735186062557,316.4546471925058,457.3752136230469,2.589291
LuRu2Sc,0.4,dft,jarvis_alex,,0.358248777592902,188.0768452442873,302.5401916503906,4.1223216
LiO2Ti,26.95,dft,jarvis_alex,,1.368137211456849,231.8976803145568,722.5426025390625,2.14854
Be4HfTc,1.064,dft,jarvis_alex,,0.3803489221210386,336.7967160177285,598.2293090820312,4.190106
H3RuTa,9.692,dft,jarvis_alex,,0.6535144718487912,319.5213397248549,395.7697448730469,1.5028292
Li2PPd,3.594,dft,jarvis_alex,,0.5832241476748192,166.18443878576866,399.2303771972656,1.5755036
GeRu2Si,0.0,dft,jarvis_alex,,0.1862880497450612,233.62895053025508,462.7687377929688,0.7409808
C2TiV,4.985,dft,jarvis_alex,,0.4810700198793913,469.9031191128063,893.03515625,2.22168
NbPbTi2,0.545,dft,jarvis_alex,,0.3665177985098017,219.5277484771596,288.8028869628906,3.705764
BeNaPd2,0.0,dft,jarvis_alex,,0.187365270591454,190.073808207133,311.56707763671875,1.2060348
LiZn5,0.059,dft,jarvis_alex,,0.2854274222236413,202.12434000183407,275.8672180175781,1.6524936
HfNiScTc,0.0,dft,jarvis_alex,,0.1340776185379164,225.28300009703773,346.3601379394531,2.1885912
GePdTi6,3.613,dft,jarvis_alex,,0.5231617798072389,244.40760230598667,371.4819030761719,11.245405
MoTi2Zn,2.479,dft,jarvis_alex,,0.4829751111285401,230.12020517613405,390.4818420410156,3.8319483
Al2RhRu,0.0,dft,jarvis_alex,,0.1326371370310607,284.84838300709305,524.9532470703125,1.3090415
CoLi2NTl,0.013,dft,jarvis_alex,,0.2525115961161201,211.0949146277313,355.7618713378906,1.2345943
PtScTcZr,0.0,dft,jarvis_alex,,0.1468473135515841,210.217706885942,300.8714904785156,0.7995783
Al3Zr,0.002,dft,jarvis_alex,,0.2205630483171211,297.0555218924462,569.1568603515625,1.1676779
Pd7Sc,0.0,dft,jarvis_alex,,0.1925090815749104,180.47356350351723,286.8891906738281,9.39386
Al2PdTc,0.003,dft,jarvis_alex,,0.22873583144135,243.0132641751351,451.7970275878906,2.6224825
Be4RhTi,3.578,dft,jarvis_alex,,0.4695827193285635,374.2429923714119,731.7481689453125,3.0789697
C2Lu4Mg2,0.472,dft,jarvis_alex,,0.367079126214081,187.6992313762832,276.67242431640625,6.095609
CoPtV2,2.897,dft,jarvis_alex,,0.5010414702280278,231.3509806699425,433.627197265625,3.3201957
LiScTcZr,0.584,dft,jarvis_alex,,0.3788397951001993,189.77702292056088,302.5788879394531,2.3233078
Cr4OsRu,6.142,dft,jarvis_alex,,0.5723094985837632,303.3741361411931,414.2327880859375,4.765794
AgNbTi2,4.896,dft,jarvis_alex,,0.6100993261353627,197.6853871951324,322.2497253417969,4.0474806
Ga2LiNi,0.227,dft,jarvis_alex,,0.3360436267154861,171.16751101060888,286.2194519042969,1.121589
Rh2ScTl,0.0,dft,jarvis_alex,,0.1267039599850379,175.712524380898,306.2549743652344,0.909163
GaOs2V,0.804,dft,jarvis_alex,,0.3901949781660762,218.0757816209613,388.7165222167969,1.6792802
AlLuSc,0.978,dft,jarvis_alex,,0.432834197275549,150.09995860902046,308.61669921875,2.3993325
GaSc2Zn,0.001,dft,jarvis_alex,,0.2152783050671761,207.5289855920382,368.3537292480469,3.190395
AlLaMgSc,0.022,dft,jarvis_alex,,0.2668766839253439,170.7807956557542,331.0389709472656,2.8878686
MnTcV2,0.355,dft,jarvis_alex,,0.328590746803541,321.031712864698,513.3994750976562,2.0102317
Ni4Sc2,0.015,dft,jarvis_alex,,0.2542311157256983,227.304567554526,411.5772705078125,4.1868057
Re4Si4,4.629,dft,jarvis_alex,,0.617558724052974,179.69858110409203,375.7288513183594,4.206125
H2Ti,0.092,dft,jarvis_alex,,0.2947203354139761,225.85953148248043,403.3030395507813,1.1984664
Ga3Nb,0.0,dft,jarvis_alex,,0.1714714291456542,229.20308979993595,438.2996826171875,0.73382074
NiPtV2,1.101,dft,jarvis_alex,,0.400798041949181,255.4719679255807,426.8515930175781,4.4643803
HLi2,2.033,dft,jarvis_alex,,0.4201257244926025,363.19381873521786,622.5894775390625,0.55762154
CuOsTi2,0.999,dft,jarvis_alex,,0.442201996583824,137.7571247595236,359.78887939453125,4.2959385
Mo2NiTi3,8.892,dft,jarvis_alex,,0.7587947448847574,203.5498527833676,425.3549499511719,6.8646164
MoNbTaTc,0.021,dft,jarvis_alex,,0.2581685913097715,254.53034842776472,376.5454406738281,1.2922548
CrMo2V,0.105,dft,jarvis_alex,,0.2901593890425322,303.3839770867571,454.3733520507813,3.7095387
HfZr,4.569,dft,jarvis_alex,,0.6656950430720278,144.25752905934107,244.2300262451172,1.3514148
ReRh6Zn,1.089,dft,jarvis_alex,,0.4095816707067036,223.96125238486235,419.2830505371094,8.364453
AlOs2Ta,0.0,dft,jarvis_alex,,0.1853811032584013,219.89234211178,382.5759582519531,0.8467226
AuReTi2,1.584,dft,jarvis_alex,,0.4775460951551413,153.87159040292238,276.7097473144531,3.521018
AlLa3,10.734,dft,jarvis_alex,,1.7567873676439465,70.50861812518004,182.5129547119141,5.0886555
MnSiTc,0.758,dft,jarvis_alex,,0.3639224695009184,320.309014310878,570.7832641601562,1.4143761
COsV2,3.769,dft,jarvis_alex,,0.5248895227757383,250.90392862072176,557.60693359375,2.578359
Ca3NSb,0.0,dft,jarvis_alex,,0.113621953503744,182.3893635439763,410.0805969238281,0.0
AlLiPd2,0.001,dft,jarvis_alex,,0.212760751154424,200.79429568576944,336.8077697753906,1.5878642
BeCaGe,0.346,dft,jarvis_alex,,0.3362549797745026,259.48517521430824,442.1836853027344,1.1788684
Be2Ga2Ti2,0.009,dft,jarvis_alex,,0.2416141252809944,289.3868434110694,505.4205017089844,2.565297
AlHfOs2,0.529,dft,jarvis_alex,,0.3776399685941253,175.5500786208345,362.2723083496094,3.7835424
Cu3Zn5,0.028,dft,jarvis_alex,,0.2744564970421146,150.1337727287348,282.5937194824219,1.4193275
N3Re3,16.022,dft,jarvis_alex,,1.2887492465179335,146.88469363245312,516.5347900390625,2.8683817
GaZr3,3.022,dft,jarvis_alex,,0.5336569945290434,190.140331942162,341.3241882324219,4.1449366
AlMgPd,0.031,dft,jarvis_alex,,0.2745621472860057,167.57394081881623,346.4851379394531,0.59528244
CrNb2Os,0.011,dft,jarvis_alex,,0.2460969346574861,272.9424265712882,362.2304992675781,1.3585285
ReRu2Si,3.764,dft,jarvis_alex,,0.5552061156712154,205.7477754343285,491.5078430175781,2.0514588
HfTi2Zn3,0.006,dft,jarvis_alex,,0.2435800860158961,160.71308560237014,358.3661193847656,1.6683419
Al2AuTi,0.003,dft,jarvis_alex,,0.2318568447201484,213.09840440446345,341.3757019042969,2.512729
HHgLi2Pt,1.194,dft,jarvis_alex,,0.4239572501168436,203.57364809688252,240.27496337890625,1.3541052
VW,0.466,dft,jarvis_alex,,0.3531252401798883,242.7798654583355,400.3683166503906,1.6304334
AlCuMgPt,0.208,dft,jarvis_alex,,0.3425995145802138,134.98513596888876,304.9047546386719,1.6075008
H2Sc2Sn,0.022,dft,jarvis_alex,,0.2615154090647829,220.56225696249084,429.0997924804688,0.66808236
HPd,39.07,dft,jarvis_alex,,1.4667597558802845,310.8100696395927,300.99029541015625,0.7818829
AlMgNiRh,0.0,dft,jarvis_alex,,0.1289346394464789,235.2380498257699,447.025634765625,1.5601306
FeSi3Y,0.254,dft,jarvis_alex,,0.3185181381885979,298.23788047038914,514.7544555664062,2.2778242
Ga2Re2,0.0,dft,jarvis_alex,,0.1991382589021303,206.2493876490072,361.25103759765625,0.63897055
Al2FePt,0.0,dft,jarvis_alex,,0.1093324027332793,269.2958308579236,429.71087646484375,1.071997
BeGaHf,0.16,dft,jarvis_alex,,0.3153763052215194,204.8211678289433,399.36865234375,1.2217332
MgSc2Zn,0.095,dft,jarvis_alex,,0.301069550551709,188.76081458966,343.1681213378906,5.249127
NbTaZn4,0.013,dft,jarvis_alex,,0.2524667044785531,206.03850722398,403.5335388183594,2.8821073
H3RhSr,1.729,dft,jarvis_alex,,0.3552277128575037,862.6319661532038,408.1372680664063,0.98328215
Al5NbNi2,0.018,dft,jarvis_alex,,0.2540835488280311,265.3552140618639,560.8645629882812,2.4368982
CdH2PdRh,0.0,dft,jarvis_alex,,0.1923335198168158,277.4667509582292,319.8337707519531,0.94121593
BeNi2Si,1.615,dft,jarvis_alex,,0.4414921233104767,224.76938755458704,478.6379089355469,1.3127294
MgPdRhSc,0.0,dft,jarvis_alex,,0.1413137880172333,193.64434150201828,340.3350830078125,1.7919363
MoTc2V3,0.585,dft,jarvis_alex,,0.3546505682428846,295.6386887068211,457.548828125,3.8159122
Li2Mg2,0.102,dft,jarvis_alex,,0.2949041026503938,249.3959373354506,421.3857116699219,1.5042424
AgMoPd2,0.196,dft,jarvis_alex,,0.3207543108668128,217.35473774814457,299.7507629394531,3.0305204
Cr2Ru6,8.482,dft,jarvis_alex,,0.6636512280303657,270.9066803188822,477.2559814453125,7.8876214
P2Rh2Y,1.292,dft,jarvis_alex,,0.4255301198158061,216.18420914788325,439.2987365722656,2.7344384
BeHf2Tc,0.551,dft,jarvis_alex,,0.3667937040549023,220.6792841853552,281.1712341308594,2.6475446
Be4OsTi,0.0,dft,jarvis_alex,,0.1719451946729777,364.2597442205358,667.9049072265625,-0.0882572
OSc2,1.26,dft,jarvis_alex,,0.3953811654735628,316.00325850963355,707.2181396484375,3.005871
MgSc2Zr2,4.132,dft,jarvis_alex,,0.6153957940396194,162.60543341481133,306.0086975097656,6.9934216
BiHLi2Mg,0.031,dft,jarvis_alex,,0.2806153278944429,129.3219197657402,341.78289794921875,0.6233977
LiMgZn,0.303,dft,jarvis_alex,,0.3497541388241445,168.75365542814774,307.0233154296875,1.2672019
Cd2LiRh,0.0,dft,jarvis_alex,,0.2010473389059245,140.18055268489385,243.56663513183597,1.5539877
C2Sb2Zr4,1.628,dft,jarvis_alex,,0.4424951425698303,223.86601660441056,464.0104675292969,3.858665
TiVW,7.901,dft,jarvis_alex,,0.6903588940152888,226.92921169729567,371.2141418457031,4.415102
Rh3Ru,1.413,dft,jarvis_alex,,0.4180043044413318,260.3371368008943,477.0994873046875,4.852026
Al2LiZn,1.796,dft,jarvis_alex,,0.4480973313094094,232.75712946529515,477.4479675292969,1.546111
HHgLi2Pd,0.885,dft,jarvis_alex,,0.388723014124561,244.8819545405652,245.9979248046875,1.7746722
Al2HgZr3,1.058,dft,jarvis_alex,,0.4264816846743753,175.0921491196669,370.7372131347656,5.8911495
GaNaSi,0.379,dft,jarvis_alex,,0.3765401586072722,127.65667583694253,357.7655334472656,0.8455506
Be4CrRe,0.024,dft,jarvis_alex,,0.2542934163174798,356.82595806876105,744.3214721679688,1.7027208
GaNbRu2,0.0,dft,jarvis_alex,,0.0888526741901391,273.20665105634095,432.7264099121094,0.08980634
C2CaCo2,0.01,dft,jarvis_alex,,0.237662126694149,411.8294596961652,560.6337890625,1.0771824
NaO3Tc,0.004,dft,jarvis_alex,,0.2326365739599091,270.1529335329682,633.1788940429688,1.715605
OsRhSc2,0.0,dft,jarvis_alex,,0.1566426850992665,226.30288268537564,352.7431335449219,2.5329957
CoLiZn2,0.0,dft,jarvis_alex,,0.1623940172722345,210.407184716218,351.7117614746094,2.1052403
AlMgNi2,0.0,dft,jarvis_alex,,0.1944189581835048,202.64736533284847,466.2673950195313,2.1107488
Be2NbRh3,4.711,dft,jarvis_alex,,0.6210967925899968,179.94179594784285,466.330322265625,4.5332294
MoTaW2,0.001,dft,jarvis_alex,,0.2134321375116105,230.3924012712564,368.7121887207031,2.7855923
In2LaPb,0.601,dft,jarvis_alex,,0.4226500207530378,104.34923192434,193.1074066162109,1.8758788
GeHNb,0.003,dft,jarvis_alex,,0.2260346145843508,335.85681640446586,471.5263977050781,0.6389898
AlCa3Li2,0.536,dft,jarvis_alex,,0.4099155388709561,109.26000509226904,297.3314514160156,6.171242
LiO2Y2,0.001,dft,jarvis_alex,,0.2101873416290708,254.3987791731045,467.1644592285156,1.1694754
Nb5W3,1.669,dft,jarvis_alex,,0.4531909588470994,205.34260580775555,309.9250793457031,8.017136
NbTaTc,0.001,dft,jarvis_alex,,0.2107591870888752,243.94209017306176,364.1787414550781,1.6833471
CHf2Sn,0.012,dft,jarvis_alex,,0.2505184725504256,224.8037843207144,342.0088195800781,0.8847183
CrGaRe,0.355,dft,jarvis_alex,,0.3382067943953435,254.7747703350123,386.5647888183594,1.230676
Ga2Ti6,1.927,dft,jarvis_alex,,0.4445144590617048,260.0469468766328,421.7345886230469,6.545532
HLi2ScSn,0.006,dft,jarvis_alex,,0.2415758998862229,203.8365927352223,414.0361328125,1.568414
NiOsSc2,0.0,dft,jarvis_alex,,0.0947364111741323,239.94101241565613,356.2447204589844,0.93971574
Os2,2.307,dft,jarvis_alex,,0.4770864184888839,225.9998451643297,464.6957092285156,1.21004
NbPt3,0.164,dft,jarvis_alex,,0.3209936600535189,180.4737454206168,324.3493957519531,2.1593692
H2HgY2,0.051,dft,jarvis_alex,,0.2840459755068036,183.13485482912145,283.6689758300781,1.5728275
CLa3Sn,10.086,dft,jarvis_alex,,0.9886254307203712,136.92806821469557,242.57408142089844,2.9262614
Os2ScTa,0.0,dft,jarvis_alex,,0.1057442599369415,228.11631720755528,348.5001220703125,0.76688504
Ru2TaTi,7.531,dft,jarvis_alex,,0.7003036321536138,209.1025861224178,350.9821472167969,2.720958
MoTi2Zn,2.16,dft,jarvis_alex,,0.4691819271858733,227.2170476050348,370.37646484375,5.2680845
AlSc2Tc,0.498,dft,jarvis_alex,,0.3650997695334964,205.9136220456464,366.5429382324219,2.3369257
MoTaW2,0.001,dft,jarvis_alex,,0.2118083441075883,230.24102451144967,361.1385192871094,2.6803112
Cu2InZr,0.059,dft,jarvis_alex,,0.2940901039576358,146.97657028263748,317.8301086425781,1.9913449
AgAuMg2,0.006,dft,jarvis_alex,,0.2491943419725486,126.17617855906065,243.42747497558597,1.1721429
Mo2NbTa,0.207,dft,jarvis_alex,,0.3191588698235848,239.5498473830733,366.8681945800781,2.685988
Rh2Ru2,1.097,dft,jarvis_alex,,0.398781638829678,262.26301815365537,478.78265380859375,3.651186
AuTaTi2,3.136,dft,jarvis_alex,,0.5554723782779909,170.73090750038307,269.3870544433594,4.2148795
Cr2ReW,8.023,dft,jarvis_alex,,0.6701940152845838,248.98774247938263,383.8266296386719,3.23646
Li4Ni2P2,0.812,dft,jarvis_alex,,0.4166536956309872,151.62363455098097,515.1038818359375,5.5141854
AgTcTi2,1.293,dft,jarvis_alex,,0.4291494020511415,207.32247848332167,350.8819885253906,4.858641
Cr2NiOs,2.948,dft,jarvis_alex,,0.4885538118657227,260.8365959759428,426.7592468261719,3.1351137
Be4FeTa,8.602,dft,jarvis_alex,,0.6269637162327449,319.37654511008725,690.4686889648438,2.50022
C2Ga2Zr4,1.014,dft,jarvis_alex,,0.4318033427377498,157.33394016161088,502.3490905761719,2.9299073
CuSc2Tc,1.616,dft,jarvis_alex,,0.4591815913190436,187.11700634203865,366.0594787597656,2.8134027
AgAl2Fe,0.0,dft,jarvis_alex,,0.181059780336152,251.5753789667145,441.7189636230469,1.7851903
GaInZr2,0.131,dft,jarvis_alex,,0.3128527112567877,180.26573932446087,330.5743103027344,2.7083175
AlO2Pt,0.0,dft,jarvis_alex,,0.1101151515665926,257.32171842160835,526.3255615234375,0.58670795
CdRh2Tc,1.129,dft,jarvis_alex,,0.4170249320834158,210.44022750855336,386.1832275390625,3.3871212
NiPt2Ti,0.0,dft,jarvis_alex,,0.1436893007188973,212.57159253966284,350.6645202636719,0.65959513
C2MoSc,15.287,dft,jarvis_alex,,0.7973682283639154,311.8006693772111,747.4586181640625,1.6100637
BeCo2Si,0.0,dft,jarvis_alex,,0.1264378460500507,358.07843033647555,685.5404052734375,1.4150548
HfOZr3,2.074,dft,jarvis_alex,,0.4903710850666576,180.50107409961413,367.1492614746094,4.192269
HfMoTc2,0.231,dft,jarvis_alex,,0.323079730371262,240.4637017734682,368.5874938964844,1.6565762
CrLiRhRu,0.402,dft,jarvis_alex,,0.3435746741329971,256.10706241069306,440.3695373535156,2.337342
AsH2Ta,0.964,dft,jarvis_alex,,0.362638834004202,416.264449199726,349.85076904296875,0.5079034
Tc2TiZr,1.638,dft,jarvis_alex,,0.4374825845723506,238.96021765048167,378.8207092285156,4.0024295
Co2GaHf,0.001,dft,jarvis_alex,,0.2162690715508411,180.49463254057252,380.78802490234375,3.141759
K2O6OsZr,0.0,dft,jarvis_alex,,0.1248144128384981,484.52084617932553,476.9652404785156,2.7457697
RuSi2Tc,6.218,dft,jarvis_alex,,0.6416416764889954,216.73383661323595,490.76702880859375,2.564391
HLaN2Re,1.04,dft,jarvis_alex,,0.3732109613338177,371.1931152715542,439.8581848144531,0.61019254
Be4Os2,5.856,dft,jarvis_alex,,0.6420506439915189,202.97012272933023,594.8231201171875,4.03188
ReTcTi2,1.627,dft,jarvis_alex,,0.4331991449942383,249.0348054798808,358.08026123046875,3.4619212
Al2V4,2.952,dft,jarvis_alex,,0.4798990774994991,281.6595464036576,498.0378112792969,5.9945407
AgTlY2,0.273,dft,jarvis_alex,,0.3735461265439127,96.97358798812073,184.57655334472656,2.869035
AlCoCuNb,0.596,dft,jarvis_alex,,0.39340046595727,153.9600938777581,428.25244140625,2.1195552
Al5RuY,0.086,dft,jarvis_alex,,0.2894902565458579,254.525292813725,464.9450073242188,2.4594402
BaP4Pd2,0.847,dft,jarvis_alex,,0.4049525241830207,184.98215003059715,294.76885986328125,1.735165
NbRh2Ru,0.564,dft,jarvis_alex,,0.3627924661131869,243.70138873547904,461.4936218261719,2.9463263
AlLiNiRh,0.0,dft,jarvis_alex,,0.1270727025167355,233.17194767764985,445.8753051757813,1.8760642
CaMg2Sc,0.062,dft,jarvis_alex,,0.2907923519878434,174.12716558415843,295.424072265625,3.9750292
Ni5W,0.005,dft,jarvis_alex,,0.2354388438084261,240.08397448742812,427.9313049316406,6.5096
GeMgRh2,0.012,dft,jarvis_alex,,0.2532562172925736,180.6185592183028,380.7946472167969,1.6925085
RuY2Zn,0.523,dft,jarvis_alex,,0.3917262900562029,138.4906428559447,252.41200256347656,2.358105
NbTc2Zr,0.077,dft,jarvis_alex,,0.2867073270003871,251.4630664098792,413.7526550292969,3.7157385
Nb2ReV,0.292,dft,jarvis_alex,,0.331068726409798,248.6778449551513,326.18072509765625,2.8836884
H6Mg2Rh2,5.975,dft,jarvis_alex,,0.5115762683534341,437.9767788151399,532.29052734375,1.5563612
Pd2ScSn,3.011,dft,jarvis_alex,,0.671492356513452,92.61614027277932,240.6708831787109,1.9122345
CoReTi2,0.0,dft,jarvis_alex,,0.1589767039686538,287.39759464860066,429.7086486816406,0.7679553
KSi6,1.165,dft,jarvis_alex,,0.4183045827597916,213.0535222737164,406.1665344238281,2.8239202
Al2NiTi,0.001,dft,jarvis_alex,,0.2176637281418444,286.3424063491987,548.7734375,2.1518931
CaS2Y,0.124,dft,jarvis_alex,,0.3032571544622227,229.1322243074461,402.5007629394531,1.4665897