formula,Tc,tc_source,dataset,pressure_gpa,lambda,wlog,debye_temp,dos_ef
AlBePtRh,0.001,dft,jarvis_alex,,0.2154745938402008,212.44242178285683,430.3880920410156,1.105692
AlGa2Zr,2.635,dft,jarvis_alex,,0.5048637263244758,204.1534761305448,391.1491394042969,1.3293791
GeMnRuV,0.355,dft,jarvis_alex,,0.3369046667985971,263.177744493156,453.0029296875,1.4588705
Hf4In2Zn2,0.59,dft,jarvis_alex,,0.4058674741479973,127.4592573992783,275.1856384277344,7.624921
CLiOsY2,0.002,dft,jarvis_alex,,0.2294206892276394,193.8441440563068,349.47003173828125,3.4299474
Mg6ScY,0.196,dft,jarvis_alex,,0.3327445307688236,160.0418771584795,336.6979064941406,6.4096785
H2Rh,1.169,dft,jarvis_alex,,0.3799528867040692,372.364165528592,417.4722900390625,0.8425532
Nb3Re,0.505,dft,jarvis_alex,,0.3592146639251312,233.4812109306867,329.6029357910156,3.470368
MgRh2Y,0.0,dft,jarvis_alex,,0.1578586271920969,172.161214082321,323.5823974609375,1.6977456
CoRuV6,2.369,dft,jarvis_alex,,0.4501655232119939,301.1421018591305,543.1343383789062,6.572986
HfSnTc2,0.892,dft,jarvis_alex,,0.4132337917105623,174.48832480622718,212.6819000244141,5.403304
LiRh2V,0.0,dft,jarvis_alex,,0.1891511623157878,250.61779888845416,436.4920043945313,2.1789389
Cu6Pd2,0.0,dft,jarvis_alex,,0.1007606189564134,200.78433581558608,325.8420104980469,1.8419605
CuPd2Ta,0.002,dft,jarvis_alex,,0.2283602747549857,188.190577106476,324.0770568847656,1.9147897
AlCoRuSc,0.154,dft,jarvis_alex,,0.3108991131924242,225.2886275953337,512.1083984375,3.993858
V2W2,0.563,dft,jarvis_alex,,0.3587433145726538,262.4985459210634,378.5890808105469,3.1801243
Al2PdRu,0.0,dft,jarvis_alex,,0.1658598816252577,230.4795142292996,448.2251892089844,0.8817596
PbRh2Sc,0.001,dft,jarvis_alex,,0.2159030806660599,157.6217305079684,306.8762512207031,1.4411511
B2Be2Hf2,0.771,dft,jarvis_alex,,0.3569855503867304,371.473652763727,644.094970703125,2.8875973
ReVW,0.275,dft,jarvis_alex,,0.3265477359101417,262.2090230860363,397.12591552734375,1.8441752
AlMgSc2,0.035,dft,jarvis_alex,,0.2723608480153284,207.0317877636853,431.1888427734375,2.7728512
NbRe2V,0.292,dft,jarvis_alex,,0.3289398953910327,262.28109865566915,369.2660827636719,1.8013749
GaYZn3,0.217,dft,jarvis_alex,,0.3386799162748611,154.028819306525,332.3178100585937,2.4300535
CdMg2Rh,0.001,dft,jarvis_alex,,0.225110770251966,137.91158653828438,269.5145263671875,1.140984
MgNZr3,0.476,dft,jarvis_alex,,0.3620788524356174,208.03872487353823,467.3668518066406,2.8140182
MoReTa2,0.002,dft,jarvis_alex,,0.2248917474519827,231.8824940353861,367.6080627441406,2.6980677
HgNbTi2,5.568,dft,jarvis_alex,,0.656239589482944,182.3921777644492,292.8287658691406,4.915978
OsRhZr2,2.157,dft,jarvis_alex,,0.5099381748240126,160.67772590365283,314.9370422363281,2.6728833
Au2Be6,4.931,dft,jarvis_alex,,0.5459942755778034,284.37743267628105,485.3936462402344,1.8515908
HfTc3Zr2,1.175,dft,jarvis_alex,,0.4193976856740455,212.52023101601148,334.9174499511719,6.026933
CdNScY2,0.544,dft,jarvis_alex,,0.3964204372586781,134.1630612597911,388.6956481933594,3.8062382
RhTcZr2,0.01,dft,jarvis_alex,,0.2485462523051886,213.3603990626372,374.8175964355469,2.2322
CuOsSc2,0.002,dft,jarvis_alex,,0.2240599827955014,206.4264783382648,317.5072326660156,2.9160028
NiRh2Sc,0.78,dft,jarvis_alex,,0.3933619081359554,201.67353065766355,395.3072204589844,4.692198
Si2Ti2V2,0.069,dft,jarvis_alex,,0.2784452653953527,313.94392037818614,589.3460083007812,2.8409102
Ge2Ti4,1.663,dft,jarvis_alex,,0.4423698622145919,229.38204630444835,452.6072692871094,5.372449
Os3Re,1.516,dft,jarvis_alex,,0.4340509001988363,230.17270341714604,451.71673583984375,3.0656152
CInSc2,0.129,dft,jarvis_alex,,0.3075497491473579,207.507830951608,414.5449523925781,2.0459456
Al3Ni2V,0.145,dft,jarvis_alex,,0.3076464800258922,233.61384038009103,547.913330078125,2.5620816
AlReTi2,0.004,dft,jarvis_alex,,0.231391475419996,279.9667680760576,409.0870666503906,1.2245003
MoVW4,0.002,dft,jarvis_alex,,0.2228179393596227,257.2766938562249,375.8087463378906,2.728042
InZnZr2,0.627,dft,jarvis_alex,,0.3938601692601509,160.8439581997954,321.9582214355469,2.9114237
BiCCaLa2,5.995,dft,jarvis_alex,,0.7533944239127756,138.48158716036068,267.0658264160156,2.6474488
Al2Mo6,0.224,dft,jarvis_alex,,0.3157694075991019,284.71546291464045,506.421630859375,4.2021747
Ga4MgSr,7.136,dft,jarvis_alex,,0.959780906724373,102.43423246605415,297.17791748046875,2.1822078
NbOs2Sc,0.0,dft,jarvis_alex,,0.1540726530291859,243.83075275495943,363.4266357421875,0.9419817
HPbTi2Zr,6.889,dft,jarvis_alex,,0.7973712659650891,140.39836270841934,319.70001220703125,5.1958995
CFSc2,0.28,dft,jarvis_alex,,0.3242717659128608,282.21482784579734,483.3464050292969,2.8159761
Ni5Re,0.025,dft,jarvis_alex,,0.2618645387275258,242.47981443126656,427.1576843261719,9.688243
CInZr3,0.335,dft,jarvis_alex,,0.3557777470407116,165.09621316804763,453.2942810058594,3.0033815
CuTaZn2,0.046,dft,jarvis_alex,,0.2830193591664814,173.59706025290416,305.6265563964844,1.3856418
MgRh2V,2.252,dft,jarvis_alex,,0.4978207278983052,184.53077728250844,384.5777282714844,4.0237675
SiTc2Ti,4.793,dft,jarvis_alex,,0.5731204556662483,235.56880617533216,455.00726318359375,4.445438
NOsV2,5.204,dft,jarvis_alex,,0.5647915812116321,267.45720714925966,557.2859497070312,2.9284625
CuTcZr2,1.325,dft,jarvis_alex,,0.4379342853527791,192.26519084598365,302.7378234863281,4.54209
OsTc2Ti3,0.664,dft,jarvis_alex,,0.3667479191423067,266.2968876411838,416.6164855957031,5.3760037
GaLiNiTi,0.0,dft,jarvis_alex,,0.0292434830916684,304.19655991553185,359.4675598144531,-0.0459336
Nb6OsRu,2.748,dft,jarvis_alex,,0.5024785123233891,217.1802212801181,377.8274536132813,6.358613
CoOsTi2,0.355,dft,jarvis_alex,,0.3427226974140245,230.6487912967913,407.4904174804688,4.7108817
MoW,0.468,dft,jarvis_alex,,0.3529348898902629,245.0033489755712,375.9043273925781,1.159315
Cr4TaW,17.693,dft,jarvis_alex,,1.0925129779103198,207.46149217744767,395.7118225097656,8.714873
CuSc2Tc,1.947,dft,jarvis_alex,,0.4811998203460763,183.5503350164408,363.2663879394531,3.16313
Cr2MoW,0.395,dft,jarvis_alex,,0.3361462026804311,298.0173468164363,424.2303771972656,0.9998904
Pt3Re,2.071,dft,jarvis_alex,,0.5568603288871665,111.71655962978372,312.9226989746094,2.2495787
HfInSc6,0.943,dft,jarvis_alex,,0.4098724548918594,192.95435833496936,312.0253601074219,8.023978
Be2PdRu,5.275,dft,jarvis_alex,,0.6002644645841752,223.1002823647203,500.0020446777344,2.7835884
HfOs2Sc,0.002,dft,jarvis_alex,,0.2285484316328178,199.9883522405823,326.68438720703125,3.7990987
Li2Zn2,1.094,dft,jarvis_alex,,0.4184079036326684,199.828795696483,331.8408203125,1.4442071
CrRuTa2,0.081,dft,jarvis_alex,,0.2889848789516274,244.39244587129232,333.2940979003906,1.6054099
GaMgScZn,0.022,dft,jarvis_alex,,0.2644266255013663,189.5455158076034,371.7792663574219,0.74615884
HNi3Sn,0.0,dft,jarvis_alex,,0.2031522155260773,280.0317451181907,356.07550048828125,3.8028257
CaLi3,0.007,dft,jarvis_alex,,0.2426901550271483,204.83988465837373,287.5474548339844,3.1547334
Fe2Si2Zr,0.08,dft,jarvis_alex,,0.2884971127167421,246.21871432912275,567.7450561523438,4.2803817
Mo2TaTi,6.48,dft,jarvis_alex,,0.6851414787578575,189.3516799382286,390.7799987792969,6.051808
Al5CuSc,0.341,dft,jarvis_alex,,0.334005967476453,270.0254156718984,481.5845642089844,2.0485172
BeNi2Tc,7.97,dft,jarvis_alex,,0.9219052824825544,122.36340193849716,511.842529296875,2.2406785
Mg6ScZr,0.058,dft,jarvis_alex,,0.2885081756099452,176.63118622221492,362.5845031738281,6.9364767
Al4CaMg,4.18,dft,jarvis_alex,,0.5652454566732901,214.7737040046534,495.7253112792969,3.8505008
AlCaLiMg,0.009,dft,jarvis_alex,,0.2456785075183108,222.35075939156823,413.6343994140625,1.9958074
GeNbTc2,1.081,dft,jarvis_alex,,0.4116376119044541,216.068267709938,406.2281188964844,2.556866
AgPd2V,1.152,dft,jarvis_alex,,0.4151720434276222,219.95448528881948,297.9949645996094,4.824607
Al4Ti4,0.035,dft,jarvis_alex,,0.2646919085649657,296.8992384461684,606.0029296875,5.393159
NbOsTaTi,1.353,dft,jarvis_alex,,0.4250505745667217,228.01244901756863,344.2825012207031,4.792245
CoGe3Lu,0.209,dft,jarvis_alex,,0.3385651538705639,148.5434017939283,304.0797424316406,1.2467961
MoNbOsTa,0.002,dft,jarvis_alex,,0.2242615705257132,249.9239922712995,375.1311950683594,1.6449168
AlLiOsSc,1.685,dft,jarvis_alex,,0.4628622919895794,187.80174253063865,352.0049133300781,1.8102248
CaPPt,2.948,dft,jarvis_alex,,0.538551891951053,178.81024945821054,279.47637939453125,1.724555
LaO,2.846,dft,jarvis_alex,,0.4962635722070319,235.89745295923143,410.6431579589844,1.3175032
Ni2PdTi,0.0,dft,jarvis_alex,,0.1146510682108011,221.60576881860115,440.8916320800781,0.911373
Al4Li2Mg2,0.573,dft,jarvis_alex,,0.356579182661453,278.61416773668014,525.0048828125,4.5890617
Mn2MoTi,0.106,dft,jarvis_alex,,0.2904408871206392,302.0530589507143,488.22314453125,2.0028532
AuNb2Ru,3.251,dft,jarvis_alex,,0.5495317016972098,184.06084815960537,319.5429382324219,2.6341896
ScZr2,4.729,dft,jarvis_alex,,0.6495918359807419,159.70836589336193,287.0728454589844,3.7472053
BeCoRhSi,0.0,dft,jarvis_alex,,0.1810315069849973,285.1207997519763,572.9932861328125,1.1276475
RhRuSc2,0.0,dft,jarvis_alex,,0.1333168667012247,238.8439292007361,378.691650390625,2.4020984
MoOsTiV,0.267,dft,jarvis_alex,,0.3232858297678145,276.66753186210474,426.3311767578125,2.3701549
AlFeV6,3.984,dft,jarvis_alex,,0.5079406975699945,301.84571411426555,428.0798645019531,5.4852138
LiTiZn6,0.472,dft,jarvis_alex,,0.3707414733075949,175.9815843120529,270.8958740234375,4.139559
MgOs2W,0.0,dft,jarvis_alex,,0.1612451802040802,211.3408015388123,337.1363830566406,0.6020189
Tc2Zn2,0.983,dft,jarvis_alex,,0.4057467798878752,212.59147432917104,391.6983642578125,1.2491506
N2Rh,0.003,dft,jarvis_alex,,0.2268780356050665,244.6926025702433,392.7217102050781,1.0039943
CSnY3,0.004,dft,jarvis_alex,,0.2339605404445228,209.5190035010818,385.9933776855469,2.478505
HfInNi4,0.295,dft,jarvis_alex,,0.348624165346678,168.7625618399856,346.9182434082031,5.905007
Os2ScZr,0.002,dft,jarvis_alex,,0.2243372387009032,208.3128818661461,337.4465637207031,2.5321898
CFLa2,1.141,dft,jarvis_alex,,0.4105535689671712,230.9381603878874,345.2121276855469,1.1823149
InLi2,0.616,dft,jarvis_alex,,0.3881152699992815,172.1262386915652,321.5856018066406,1.0028274
MoSiV6,5.154,dft,jarvis_alex,,0.5538542420707464,284.3004194560117,493.721923828125,6.730668
HgTaTi2,4.829,dft,jarvis_alex,,0.648297552727518,163.36523147451723,253.11985778808597,4.7366424
Mo2OsPt,1.992,dft,jarvis_alex,,0.4655212228408633,217.1447037270912,395.1485290527344,2.225199
CInNb2,0.048,dft,jarvis_alex,,0.2709860182414756,302.7284591086081,464.7875061035156,1.2095456
Al3CaPd,0.378,dft,jarvis_alex,,0.3511489328175327,204.59332447878,337.28692626953125,1.9830396
PbTi3,5.626,dft,jarvis_alex,,0.6928357725445896,159.46755054689228,273.5902404785156,5.5589943
Be4MnMo,0.224,dft,jarvis_alex,,0.3065565524294149,372.4436166476126,833.1441040039062,1.5560812
InTi2W,0.568,dft,jarvis_alex,,0.3689473853772452,218.7733302861733,350.1294250488281,3.325599
Cr4ReW,24.634,dft,jarvis_alex,,1.7178661873989116,164.226042952609,412.88580322265625,9.377316
Be2P2Tl2,3.198,dft,jarvis_alex,,0.6360275982713459,113.72547491960944,228.3529815673828,0.6495674
Cu2Si2Ti2,0.001,dft,jarvis_alex,,0.2123585744959349,304.7477433113362,540.9456787109375,2.088585
Cu4NbPd,0.308,dft,jarvis_alex,,0.3437917477242469,195.26926208060223,349.8405456542969,4.4099617
CSc2Sn,0.032,dft,jarvis_alex,,0.2702248416683011,206.03917340295183,436.9068298339844,1.534428
CClLu2,0.133,dft,jarvis_alex,,0.3037064564699521,242.55727206858384,327.6109924316406,1.6048869
ReRhZr2,0.025,dft,jarvis_alex,,0.2653109402223388,202.7912733836102,337.2587585449219,2.029729
Nb2RuW,0.566,dft,jarvis_alex,,0.3647554871078189,235.5428850906238,362.01947021484375,2.2244937
Ga3Zr,0.121,dft,jarvis_alex,,0.3119142812321335,172.21360504667618,396.9833984375,0.92619485
SbTaTi2,0.131,dft,jarvis_alex,,0.3041369064833839,235.17381693357123,322.3408203125,2.6487715
CuPt2V,0.22,dft,jarvis_alex,,0.3223624792083342,233.12842007872663,328.67889404296875,2.4173381
OsRh3,1.65,dft,jarvis_alex,,0.44037193244109,233.0849422736223,454.91497802734375,5.6376233
SnTlZr6,6.577,dft,jarvis_alex,,0.7657436578598538,147.61866871880773,284.2367858886719,9.653471
AuRhZn2,0.149,dft,jarvis_alex,,0.3400348501637979,102.7059678557282,240.3748321533203,0.9511568
Pt3Ru,0.363,dft,jarvis_alex,,0.3535247791122888,187.41565603777315,319.7829895019531,6.158438
BiCl2La2,0.374,dft,jarvis_alex,,0.3858951205980176,108.30100082332812,176.93678283691406,2.7375803
In2Sc2Zn2,0.0,dft,jarvis_alex,,0.160432366835994,201.9135081575126,324.4562072753906,1.0428016
CSc2SnY,0.0,dft,jarvis_alex,,0.1849563983436817,275.69664146521177,454.9529724121094,2.5039175
MgRh7,1.54,dft,jarvis_alex,,0.4376587639434187,224.35069144403664,420.1094055175781,7.2127113
MnRuV2,5.137,dft,jarvis_alex,,0.5517023647361429,287.4153281099067,477.0964660644531,2.7828481
AlRh2Zr,1.122,dft,jarvis_alex,,0.4661057194516905,121.2354210449638,365.8204956054688,4.155275
LiNbNi4,0.109,dft,jarvis_alex,,0.3030627506241497,202.7909291053932,430.2078552246094,2.5684621
H5RuSc2,3.527,dft,jarvis_alex,,0.5148120565568763,252.3021395134125,585.0227661132812,3.9085712
AlHfNi2,1.85,dft,jarvis_alex,,0.515196079987073,132.21444822550063,313.3731384277344,3.1348464
AlZn3,0.772,dft,jarvis_alex,,0.4023905749440072,174.72375192049904,319.86358642578125,1.4739321
CoMnSiTi,0.0,dft,jarvis_alex,,0.0926785579716344,388.4973870980672,551.8497924804688,0.0026675
Ba2CdH2,2.032,dft,jarvis_alex,,0.6358901053921804,72.55958757142203,196.48919677734372,3.5082726
Li5Zn2,3.512,dft,jarvis_alex,,0.5718491356669381,173.1017534812949,315.5057983398437,3.202833
InNbZn2,0.0,dft,jarvis_alex,,0.1442376323111161,209.7815106941233,357.6136779785156,1.295771
NbRuTaW,0.047,dft,jarvis_alex,,0.2761400076292826,234.44121090474545,351.43475341796875,1.5929952
LaN3Re,16.852,dft,jarvis_alex,,1.677197748096646,113.01599273048905,462.4582824707031,1.0822448
Nb4Ni4V4,10.284,dft,jarvis_alex,,0.7951125862570884,212.9420136619549,413.1896057128906,18.904522
AlMoV,2.583,dft,jarvis_alex,,0.4760023854622133,255.11378175183552,492.8403930664063,1.7941668
BaP2Ru2,0.018,dft,jarvis_alex,,0.2592797474829341,203.7055350746036,323.9334411621094,1.453819
N2Pb2Zr4,2.714,dft,jarvis_alex,,0.487396450484542,241.85349571113707,318.2771301269531,4.8265824
AlTcTi2,0.012,dft,jarvis_alex,,0.2460647241305524,281.52493384376135,459.9428405761719,1.4155037
BeRu2,1.432,dft,jarvis_alex,,0.4082219516634874,299.4988786136355,536.7613525390625,2.4722517
AlMoTc,0.022,dft,jarvis_alex,,0.2566800649035797,284.2588225524862,503.0966491699219,1.0711511
CuS,2.94,dft,jarvis_alex,,0.6040190429690688,121.74811675842696,257.39996337890625,1.27045
FeGeOsTi,0.0,dft,jarvis_alex,,0.06808816859024,281.2798059101447,435.3486022949219,0.26484275
HfTcZn4,0.001,dft,jarvis_alex,,0.2126405768609285,211.8063190944752,374.5635070800781,2.2866955
Nb2ReW,0.004,dft,jarvis_alex,,0.2313815897876092,239.514662176728,347.5402526855469,1.8357718
Cr4TaTi,0.434,dft,jarvis_alex,,0.3385951354451759,309.44850802208504,421.0984802246094,3.0970685
AlLuSc2,1.286,dft,jarvis_alex,,0.4379462293904827,186.4358716724608,319.6753845214844,4.6147676
P3SSc4,0.0,dft,jarvis_alex,,0.1815668678276244,338.2074866628805,525.04931640625,3.2481334
H2PdRh,4.291,dft,jarvis_alex,,0.5108802265179629,316.235227865336,359.8052673339844,3.7699559
B2Co3Lu,0.317,dft,jarvis_alex,,0.3295613210657515,279.63168331015714,565.3848266601562,3.6862752
Ag2LiMg,0.0,dft,jarvis_alex,,0.2126218357880518,183.5864371840212,260.5110168457031,1.521101
LiNi2P2,0.51,dft,jarvis_alex,,0.3613731092139641,225.8308780093532,412.6446838378906,2.6146507
HfOs2Ta,9.574,dft,jarvis_alex,,1.0788599035850572,114.18632612627546,337.1434326171875,2.652638
BeReRh2,0.63,dft,jarvis_alex,,0.3768596218107025,211.67806058150907,459.9663391113281,2.1022034
Os2Ru6,1.579,dft,jarvis_alex,,0.4230450024810315,273.09227503069644,517.8878173828125,6.960342
LiRh2Ti,0.054,dft,jarvis_alex,,0.2813308957526373,216.66769526084377,416.81591796875,1.5519025
CaCu2,0.0,dft,jarvis_alex,,0.1551140530028251,175.98682230866413,262.3282775878906,1.1836886
B4HfNb,0.638,dft,jarvis_alex,,0.3366023722039201,475.4470858187465,723.3486938476562,1.2578499
Ag2CaSr,0.065,dft,jarvis_alex,,0.3114354918754298,94.08929029495287,188.57077026367188,3.6625705
AlCTi2,0.016,dft,jarvis_alex,,0.2470030458358158,359.9646795939638,703.70263671875,1.153007
AlRu2Ta,0.0,dft,jarvis_alex,,0.0531185573941846,264.5148931948888,432.7296752929688,0.016541248
ScSnZr2,7.149,dft,jarvis_alex,,0.8284751869464096,135.43323460725225,318.4612731933594,5.311242
Pt3Tc,3.309,dft,jarvis_alex,,0.7557035421623178,75.8670416548288,336.8194580078125,2.543916
Al2CoNi,0.0,dft,jarvis_alex,,0.2065161457594204,232.8805364338077,586.2223510742188,2.5293784
Hf2ReRh,0.0,dft,jarvis_alex,,0.127508288819902,204.49179964123093,313.1900329589844,0.3862523
B4C4Lu2,3.046,dft,jarvis_alex,,0.4472395647618695,397.84684831770863,684.7720947265625,1.6752065
Mo3Re,12.35,dft,jarvis_alex,,0.8555110106544483,221.1176660371513,403.7587585449219,4.948596
CaScTl2,0.462,dft,jarvis_alex,,0.4024006908232015,104.53533788547456,173.34832763671875,3.4982295
Be5Pd,0.001,dft,jarvis_alex,,0.2125513800144199,476.9254792583783,833.38330078125,0.6839974
AlOScY2,2.063,dft,jarvis_alex,,0.5235566289284712,138.48157350944342,433.3299865722656,3.5534973
AlCCr2,0.094,dft,jarvis_alex,,0.2787397808490884,423.472202369547,737.2344970703125,3.4594796
NbOsTaW,0.018,dft,jarvis_alex,,0.2563226900850943,229.1219713100976,354.09014892578125,1.8525285
Re2Ti,0.138,dft,jarvis_alex,,0.3036611595538027,251.21993934515635,344.6816101074219,1.4956939
CoOsV6,2.103,dft,jarvis_alex,,0.4392498605746107,300.7271530909026,520.5953369140625,6.329237
Al2C2Nb3Ti,0.015,dft,jarvis_alex,,0.2462899530245114,345.0905870721017,610.30224609375,3.8016148
Be4OsW,3.658,dft,jarvis_alex,,0.5140673701756779,263.37757665793737,582.406494140625,3.569373
OsPt2Ru,1.216,dft,jarvis_alex,,0.4239959567048629,207.6928996412656,358.3955078125,4.4494066
Al3BaRe,0.535,dft,jarvis_alex,,0.4005307795669279,124.15775105064428,290.4831237792969,1.1587331
Al2SiTi,0.149,dft,jarvis_alex,,0.2993160142522085,312.676817245951,672.785888671875,2.5179322
MnTa2Tc,0.0,dft,jarvis_alex,,0.1744565741867171,255.37671824156712,328.17822265625,1.0237895
In2LiRu,0.001,dft,jarvis_alex,,0.2143534568142356,165.0960589625087,300.51220703125,1.4789523
PtRh3,0.765,dft,jarvis_alex,,0.3841481045654909,228.2026240250356,399.0671081542969,6.229205
Al3Sc5,0.263,dft,jarvis_alex,,0.3315061387205552,221.66980805918675,442.1224365234375,6.626896
BeOs2,0.903,dft,jarvis_alex,,0.3859649442398523,261.2605058019972,447.6381530761719,1.8608191
FeTcTiV,0.001,dft,jarvis_alex,,0.2131964461625111,317.97143230271075,458.2279052734375,1.7102016
Ge2Mg4Pt2,0.102,dft,jarvis_alex,,0.313013097326964,139.85751080173722,301.0999755859375,1.2167311
HLa,0.081,dft,jarvis_alex,,0.2956808812412884,190.92353821788524,320.7117614746094,0.8566321
CuPtRh2,0.014,dft,jarvis_alex,,0.2528697270300393,218.91381173611336,334.3061828613281,3.469524
HgNZr2,1.084,dft,jarvis_alex,,0.4060249772533552,233.26743052553343,364.0635681152344,1.9181836
Al3ZnZr2,5.048,dft,jarvis_alex,,0.6898255762068146,144.77982837860168,482.1208801269531,3.1862485
HfMoPtZr,0.0,dft,jarvis_alex,,0.1793515746888593,194.3221774761197,283.2021484375,0.7328312
HPd3Zn,1.225,dft,jarvis_alex,,0.463344460401304,135.7899053269956,276.1785888671875,5.700566
O6ReW,0.08,dft,jarvis_alex,,0.2870485364053114,257.0180687581842,565.918212890625,3.269599
AlNb6Os,2.747,dft,jarvis_alex,,0.4946749630085653,231.09884506772687,360.5820617675781,5.006357
HfNbRe2,0.024,dft,jarvis_alex,,0.2639341600726237,210.5275930490261,338.05828857421875,2.439662
N4YZr3,19.975,dft,jarvis_alex,,1.2650603070247737,187.78249737940985,587.0350341796875,2.1436608
GeMgPd2,3.691,dft,jarvis_alex,,0.7360488205293529,90.1096807438957,276.9932556152344,1.5426409
CdHRh,0.013,dft,jarvis_alex,,0.2500466330932932,250.55395764578063,313.6315612792969,1.9878114