formula,Tc,tc_source,dataset,pressure_gpa,lambda,wlog,debye_temp,dos_ef
Rh2ScZn,0.001,dft,jarvis_alex,,0.2183142541639494,198.72765059089184,364.2205200195313,2.397575
AlMgRh2,0.0,dft,jarvis_alex,,0.1159488657872145,233.58969408631623,451.4012756347656,0.7550454
C2Mg2Ti4,0.034,dft,jarvis_alex,,0.2627772705796666,312.54145456534815,551.5673828125,6.1533823
LiRh2Ta,0.0,dft,jarvis_alex,,0.1536767709814345,196.56866912605489,328.5910949707031,0.7523529
AlZr3,4.474,dft,jarvis_alex,,0.6182810090746583,173.80672981453782,362.2235412597656,3.9751008
H2LaNTc,3.215,dft,jarvis_alex,,0.4705396142722621,332.704001914154,473.6270446777344,1.5651872
CuReRh2,0.407,dft,jarvis_alex,,0.3528147259360105,213.65967171261403,389.44427490234375,2.4880517
AlTc2W,0.676,dft,jarvis_alex,,0.3742603650371028,237.5396452972403,405.3531799316406,2.6727448
OsTcTiV,0.0,dft,jarvis_alex,,0.2028239769915465,304.469344612883,435.1466674804688,1.8394328
CrRuV2,0.404,dft,jarvis_alex,,0.3342934759016523,317.9698884950398,509.7097473144531,2.995239
Mo,1.912,dft,jarvis_alex,,0.4389616777093519,274.3452028942043,469.2603454589844,0.9555384
Ta3Ti,16.625,dft,jarvis_alex,,1.5195112969944502,127.66622733343706,262.825439453125,6.602535
BeGeSc,0.149,dft,jarvis_alex,,0.2989498992607607,315.36796282408426,507.49658203125,1.2280984
Li2MgSn,0.585,dft,jarvis_alex,,0.4034873771543141,130.186006101179,284.5609130859375,0.8434128
SnTi3,4.239,dft,jarvis_alex,,0.5701468701707192,211.79059840075112,330.1895446777344,4.157949
Ta3Tc,0.102,dft,jarvis_alex,,0.3011671421532219,200.7346341121749,321.4208068847656,2.3640037
Hf3OZr,1.251,dft,jarvis_alex,,0.4509991809954611,157.29586820065782,332.6982421875,3.6068683
Re2RuV3,2.138,dft,jarvis_alex,,0.4497611801317255,272.92844565907075,423.8441162109375,4.078341
NbTc2W,8.185,dft,jarvis_alex,,0.7297868067412312,205.48430745413967,408.2525329589844,2.5721257
Co2LiSi,0.0,dft,jarvis_alex,,0.137049202818392,322.7804289120948,659.42578125,2.6981804
Co4CsP3,0.038,dft,jarvis_alex,,0.269984435562304,251.92970751579887,373.6318664550781,5.1132383
Ni2RuW,0.548,dft,jarvis_alex,,0.3631105294167989,235.37258778110652,416.0376892089844,3.7365155
PdRhSi,0.0,dft,jarvis_alex,,0.162225033826417,229.49605693080468,378.4472961425781,0.6771493
CuNbZn,0.532,dft,jarvis_alex,,0.3648261246916885,221.1506447593358,352.6419982910156,2.0100467
AlOs2Ti,0.247,dft,jarvis_alex,,0.3286849809627241,222.9506773792611,406.8261413574219,3.7204475
PtRhSi,0.0,dft,jarvis_alex,,0.1623344769738452,210.1992362467416,344.6890563964844,0.9809157
Mg2Sc2Zn4,0.014,dft,jarvis_alex,,0.2562406514197374,184.57506364815816,344.7475280761719,2.8553858
Li2MgRh,0.0,dft,jarvis_alex,,0.1719033545677766,223.4798168797941,368.8996887207031,0.946812
RhTi2,0.008,dft,jarvis_alex,,0.2415537826672922,268.1387429300852,452.48052978515625,1.6871448
Rh3Tc,0.764,dft,jarvis_alex,,0.3770247324916424,256.2813794877297,467.5317687988281,3.8695185
AlCuHfPd,1.542,dft,jarvis_alex,,0.534822881219668,95.7850176672546,272.9459533691406,1.7272239
AgAlScZn,0.063,dft,jarvis_alex,,0.294977080797282,152.1049107562652,293.5817565917969,1.9544741
NbSnTi2,0.648,dft,jarvis_alex,,0.3724644835874324,234.9179037972461,334.0064697265625,4.3097124
NbRu2Zn,0.074,dft,jarvis_alex,,0.2926370643077844,195.1370214838857,389.6241760253906,3.8736818
H3PtSr,3.37,dft,jarvis_alex,,0.4239264669536513,574.7811914433419,294.0629577636719,0.95058435
Al3Ga,2.595,dft,jarvis_alex,,0.4875641423757309,231.30694765468184,481.4463806152344,1.2255622
B2C2Ni2Y2,0.0,dft,jarvis_alex,,0.1954139161176855,420.52577223159057,520.0253295898438,2.2604232
CdRh2Zr,0.0,dft,jarvis_alex,,0.150847279686943,166.7740149310594,301.8130187988281,1.7592665
BeRh2Ti,0.0,dft,jarvis_alex,,0.0839597859465282,266.9818947482014,476.02783203125,0.2510601
Ru2YZr,0.0,dft,jarvis_alex,,0.1767682101273769,195.7675243146603,335.4582824707031,1.9837234
AlNi,0.002,dft,jarvis_alex,,0.2231180330811508,246.2557530611317,527.9484252929688,1.4386503
NbRe2Ti,0.025,dft,jarvis_alex,,0.2615501404189168,245.0471488992133,386.9233093261719,2.761035
Sc2TcZn,4.4,dft,jarvis_alex,,0.6535264138074535,145.50158720885125,337.633056640625,3.9113476
Li2NiSi,0.19,dft,jarvis_alex,,0.3087085207339777,296.8387804304985,484.1841430664063,1.823997
OsRu,2.231,dft,jarvis_alex,,0.4629954151881256,249.28336222039897,494.9280090332031,1.3947388
Al2GaSc3,0.024,dft,jarvis_alex,,0.2658246678199378,193.9123398930321,411.6779479980469,3.1641834
Al3Zr4,0.634,dft,jarvis_alex,,0.3775918430683981,210.4199395835722,475.8209838867188,4.0082316
C6Li,0.59,dft,jarvis_alex,,0.3027834536859178,1103.5005639571184,1160.140380859375,1.5841107
BPbY3,0.079,dft,jarvis_alex,,0.2931723320680858,203.2365182907221,332.9196472167969,0.87060505
RuSiTaTc,0.0,dft,jarvis_alex,,0.1303118768242011,246.41190055689952,418.3997802734375,0.57040143
Mo2Si2,0.053,dft,jarvis_alex,,0.2721223216627879,319.22071156473606,639.9595336914062,1.5373539
B2Co2N2Y2,0.0,dft,jarvis_alex,,0.1928978292556578,430.6471420351226,554.4227905273438,2.7240179
HfMgRh2,0.0,dft,jarvis_alex,,0.1066948923972433,190.75657756669364,333.8222961425781,1.0155932
LaRuSi3,0.766,dft,jarvis_alex,,0.3767181103866015,258.0332496271115,420.7303771972656,2.0406768
MoRuTa2,0.0,dft,jarvis_alex,,0.2019938444551974,231.710630489664,367.4376525878906,1.1561546
Ni2TcZn,1.763,dft,jarvis_alex,,0.4532242229157165,217.08390248103493,440.1019287109375,3.338184
PRhY,9.629,dft,jarvis_alex,,0.9558100748917044,138.9075131304258,341.9781799316406,2.139554
BeOsRuV,2.296,dft,jarvis_alex,,0.4716001677430542,235.89924040756844,424.6605529785156,1.5248128
HfTc2Ti,1.505,dft,jarvis_alex,,0.4332929267662679,230.1139562700652,360.9728393554688,4.48933
Cu2PS4,0.561,dft,jarvis_alex,,0.4068533731830327,119.31118650925404,325.2615661621094,8.911193
HfIn2Ti,0.034,dft,jarvis_alex,,0.275978136991632,173.52858229425354,295.6387939453125,3.46985
NTi3Tl,3.906,dft,jarvis_alex,,0.5360573975750142,240.76302528526583,334.2991638183594,2.3547182
Cd2H2Sc2,0.301,dft,jarvis_alex,,0.345519542986996,183.41295487350484,385.4364013671875,0.9391441
MoNbTa2,4.495,dft,jarvis_alex,,0.6020873694325788,188.98002673778635,315.53564453125,4.5326595
AuBe2Rh,0.007,dft,jarvis_alex,,0.240571600970373,231.0924986753717,344.1855163574219,1.0027068
Nb2RuW,0.22,dft,jarvis_alex,,0.3206655085669028,244.2514749809974,366.4881286621094,2.475764
NSc,0.0,dft,jarvis_alex,,0.1706275053605362,431.75294520281983,794.3584594726562,0.0010650126
MoVW,0.01,dft,jarvis_alex,,0.2438149809993778,266.0755037350674,386.3462219238281,1.7263525
AuBeNb,0.017,dft,jarvis_alex,,0.2546405561296233,241.21614567883097,363.3793029785156,0.7374505
CHfNTi,2.0,dft,jarvis_alex,,0.4058096207732376,431.8441017479536,558.9644775390625,1.9441428
Ta2W,2.386,dft,jarvis_alex,,0.5181171314830963,167.2392796546008,325.7235717773437,2.9238183
AlTcZn2,0.002,dft,jarvis_alex,,0.2245372125497332,247.40807278878435,399.5881652832031,1.0040067
LiNi2Si,0.009,dft,jarvis_alex,,0.2447087930807033,241.45023033000763,416.0586242675781,3.0590136
Ru2ScSn,0.213,dft,jarvis_alex,,0.3256362729155809,207.7728868114068,435.7281494140625,4.1450887
BeRh2,3.421,dft,jarvis_alex,,0.5220206441170745,233.0286705099849,481.3795776367188,3.2299101
AlReTcW,0.592,dft,jarvis_alex,,0.371638252168908,217.72281090181423,368.2272033691406,2.2557385
NiS2,0.847,dft,jarvis_alex,,0.3863373893951598,243.6161730166023,296.5068664550781,1.2967548
LiP2Rh2,0.902,dft,jarvis_alex,,0.3871392679711933,256.19400758847576,406.7899475097656,3.1775517
HMn,10.718,dft,jarvis_alex,,0.7139225559318145,281.34480515301374,671.2998657226562,1.9771439
Be2Si2Y2,0.037,dft,jarvis_alex,,0.262509318366298,348.1577548429124,537.9534912109375,2.7700105
Na2O4Tl2,0.0,dft,jarvis_alex,,0.0209287660851976,288.8275338955212,339.2391052246094,0.0
Fe2P2Y,0.0,dft,jarvis_alex,,0.2027272861475547,342.4051886343729,536.1934814453125,2.5461056
LuN2Zr,2.793,dft,jarvis_alex,,0.4372923623629826,407.5327802974208,577.880859375,1.1534257
Co3GeH,0.002,dft,jarvis_alex,,0.2205681303951812,292.7343789751555,487.0355224609375,2.90677
GaOs2Ta,0.0,dft,jarvis_alex,,0.0830558220316824,191.3266125130267,366.9304504394531,0.051699605
CuGaLiPd,0.295,dft,jarvis_alex,,0.3559844041128435,144.79570279636874,294.4342956542969,0.9303987
B2Co2Ta,0.098,dft,jarvis_alex,,0.2859649404334815,330.97294965280287,583.33935546875,3.6529257
PdRhSc2,0.007,dft,jarvis_alex,,0.2468082392963574,159.36149801893444,331.5453186035156,1.9394624
InOSc2Y,0.713,dft,jarvis_alex,,0.3764793836950985,240.96605780770145,421.6721801757813,2.82519
Al2LuSc,0.108,dft,jarvis_alex,,0.3080101957432454,171.18576241361612,343.25445556640625,2.4525988
Mn4MoV,17.659,dft,jarvis_alex,,0.988566147651598,243.60581602898148,482.275634765625,10.410826
Lu2Ru4,10.736,dft,jarvis_alex,,0.950672435485286,157.79821566128354,258.166015625,6.946708
GaRu2Sn,1.64,dft,jarvis_alex,,0.5208537158181978,112.34756859313102,393.0614318847656,2.4292724
GeOsTa,6.434,dft,jarvis_alex,,0.7600996290304873,146.83132094616096,325.7986145019531,1.1111269
CNTi2,2.38,dft,jarvis_alex,,0.4069910404097239,506.0620784248519,857.0908203125,2.057042
AlLa2NY,1.182,dft,jarvis_alex,,0.4696901336068072,123.25825314182224,315.7105712890625,2.7088873
Ni2PtRe,0.088,dft,jarvis_alex,,0.2948333130174262,214.4358326727365,362.1691589355469,3.4390182
PdPt2Rh,0.483,dft,jarvis_alex,,0.3721030024533069,176.2424273006584,292.2375183105469,7.696693
AlLi2Mg,0.03,dft,jarvis_alex,,0.2633928824438549,275.2235865949468,453.5325622558594,1.3528135
Al4Na,0.106,dft,jarvis_alex,,0.3025507420450471,199.59671883137207,320.4083251953125,1.1993916
CuRh2Sn,0.0,dft,jarvis_alex,,0.1154399193904109,166.98117825032784,332.8838806152344,1.8699795
AgHLiPd2,0.843,dft,jarvis_alex,,0.3689444623373559,324.3253077732554,288.0778503417969,1.8410034
Os3Ru,1.564,dft,jarvis_alex,,0.4338878902395459,237.71498765623144,482.5442199707031,2.4694133
C2NbY,0.694,dft,jarvis_alex,,0.3594991227952443,318.5149469059361,581.4893188476562,0.7610483
Ca2LiMg,0.001,dft,jarvis_alex,,0.2214734502845403,187.3436717833468,188.424072265625,3.2202077
GaOsTaTc,0.007,dft,jarvis_alex,,0.2441078376166212,195.83771485287565,366.56146240234375,2.5549195
ReRhTi2,0.004,dft,jarvis_alex,,0.2323974999814826,254.2688169536096,415.8923034667969,1.7847644
ReTcTi2,1.516,dft,jarvis_alex,,0.4294403627668724,242.40418212676948,360.1885681152344,3.7399883
GaTi2W,0.717,dft,jarvis_alex,,0.3799519576686997,228.8273560001041,392.2340393066406,2.5822692
GaInTi2,0.002,dft,jarvis_alex,,0.2239699218490576,248.1488144850856,368.1793518066406,2.5415418
Cr4OsTc,14.704,dft,jarvis_alex,,0.8642703336101473,257.1338146138338,419.8465881347656,7.234713
GaTcZr2,0.064,dft,jarvis_alex,,0.2883202889028096,197.5203612556415,330.1664123535156,1.4085609
In2MgTi,0.0,dft,jarvis_alex,,0.1730797564930797,217.64052301152847,313.0012512207031,1.8955007
CaNi4Y,0.0,dft,jarvis_alex,,0.1822389809449778,207.84824386813435,339.2724304199219,7.0262814
AlPdTcTi,0.0,dft,jarvis_alex,,0.1029905365920084,279.8287225017497,402.6371765136719,0.7185444
LiPdRhTi,0.0,dft,jarvis_alex,,0.2093993508342252,206.81014030838904,344.5614013671875,1.5995668
PtReRh2,1.43,dft,jarvis_alex,,0.4339966317731894,216.9983024278479,370.2686462402344,3.399468
Be4ReRu,2.49,dft,jarvis_alex,,0.4514176536472279,311.5731149614042,624.781982421875,1.2677298
MoRhTa2,4.455,dft,jarvis_alex,,0.6142814746737155,176.54568117457688,369.0007019042969,3.4981165
Al2Li5,1.194,dft,jarvis_alex,,0.4059031829119204,257.5539815854431,559.2247314453125,3.278807
LuRu2Ta,0.0,dft,jarvis_alex,,0.1795785718385512,215.7995946260173,312.3761901855469,1.7179798
P2ScZr,0.584,dft,jarvis_alex,,0.3621858594237254,254.9235529442828,502.561279296875,1.3677572
CoHRh2Zr,0.011,dft,jarvis_alex,,0.2449182269543868,286.60390844562664,435.8410949707031,2.472893
MgNSc3,0.018,dft,jarvis_alex,,0.2533553401411635,276.4509146866069,558.6605224609375,7.5922513
LiOsY2,0.066,dft,jarvis_alex,,0.2943240580899057,164.40661263935883,259.68878173828125,2.970804
HfRh7,0.473,dft,jarvis_alex,,0.3547009025323605,238.7434031318962,420.8435668945313,7.241939
CrMnTa2,0.004,dft,jarvis_alex,,0.230877663626273,271.83030696939653,351.4602355957031,2.4989243
Au2Sc2Si2,0.02,dft,jarvis_alex,,0.2624907469030241,186.2565799685668,348.0652770996094,0.8910782
CdHZr3,1.072,dft,jarvis_alex,,0.4132860235512953,209.20065081823543,349.9369201660156,2.063839
OsTa3,0.012,dft,jarvis_alex,,0.2516790041186063,200.9311086589247,308.3461303710937,1.5790657
AlHgSc2,0.046,dft,jarvis_alex,,0.282180381341588,178.12511572768935,310.19879150390625,1.6626161
CrV2,8.251,dft,jarvis_alex,,0.7284465705638199,206.6492108817941,485.24359130859375,4.048192
H3MgNi,2.198,dft,jarvis_alex,,0.3761006076212478,747.1852455675293,556.206298828125,0.5885087
Ga2PdRu,0.11,dft,jarvis_alex,,0.3082667118716319,173.222086523615,362.0859680175781,1.5673534
LiMoRh2,3.693,dft,jarvis_alex,,0.6528099125209815,122.28302356624314,398.11566162109375,1.7906947
BeFeIrV,0.0,dft,jarvis_alex,,0.1474052442983322,290.67322246036053,412.6121215820313,0.85104245
HfTi2,3.081,dft,jarvis_alex,,0.522242352265157,209.572322107128,307.7073669433594,1.7459478
In2LiSc,0.05,dft,jarvis_alex,,0.2925933566689094,131.16824415828302,293.3788146972656,1.4842769
Be2CuNi,0.083,dft,jarvis_alex,,0.282280750039117,320.7949919157341,551.3704833984375,1.5885007
CoRuSc2,0.0,dft,jarvis_alex,,0.1873793784687234,237.8778403735769,400.1905212402344,2.1054146
La2PbTl,1.132,dft,jarvis_alex,,0.5063812092944154,86.61687937932642,143.4935302734375,3.6223974
Be2NiPd,0.01,dft,jarvis_alex,,0.2428875993785532,290.122090591552,459.6797790527344,1.7953689
BeGaNb,0.0,dft,jarvis_alex,,0.1739749010397225,251.3464109261924,497.6157531738281,0.6988848
CrMnReTi,0.061,dft,jarvis_alex,,0.276073034693416,304.6119012215125,423.8697204589844,3.1939275
NbPt2V,0.792,dft,jarvis_alex,,0.3891278597533692,218.36953903460915,385.8363952636719,3.7011557
Be4OsRe,2.525,dft,jarvis_alex,,0.4632351410083208,280.37544514753006,582.12451171875,0.94415164
InPdRuSc,0.0,dft,jarvis_alex,,0.1267812337532004,205.1995895685696,316.4922790527344,1.5430436
Al2Zn2,1.283,dft,jarvis_alex,,0.4351369236078254,191.74350262264124,418.1109008789063,1.1144073
InMg2Ti,0.0,dft,jarvis_alex,,0.1482250804220421,227.99108319864305,359.5603332519531,2.8289104
Nb2ReW,0.006,dft,jarvis_alex,,0.2378814361208501,235.1901059095813,344.2096862792969,2.8822515
Al5Co2Zr,0.0,dft,jarvis_alex,,0.1688063808077556,316.56037464880546,596.185546875,3.6216679
Al4ScY,0.007,dft,jarvis_alex,,0.2392781441124309,266.2517681090735,532.0701904296875,4.131542
NiPt2W,0.22,dft,jarvis_alex,,0.3300810960348158,191.8906727726592,337.58184814453125,2.3393724
Zn2Zr6,2.184,dft,jarvis_alex,,0.500576701585397,175.26016558271965,290.2665100097656,8.559694
LuNbRu2,0.006,dft,jarvis_alex,,0.2397449793400842,222.28589447016816,331.6427917480469,1.8501506
NbTaW2,0.207,dft,jarvis_alex,,0.3259571563729792,199.7350373651364,353.0533752441406,3.0944204
La2OScY,1.087,dft,jarvis_alex,,0.4492605282973203,139.20952825767202,301.7347106933594,6.7530127
NbPdTi2,10.038,dft,jarvis_alex,,0.8324233023986003,188.77438471440112,348.9023742675781,4.275263
MoPdTi2,1.45,dft,jarvis_alex,,0.4324488414054759,223.9362534854753,407.21722412109375,3.1822016
MoNb2Re,0.022,dft,jarvis_alex,,0.2582627142797019,259.0600177832819,370.2374572753906,2.5026395
Al6Sc2,0.333,dft,jarvis_alex,,0.3315750016662374,279.38983133801173,554.8184814453125,1.7034711
Cr4Mo2,25.745,dft,jarvis_alex,,1.9835975775547257,148.72167841121066,498.4979553222656,10.679857
CoInRuZr,0.0,dft,jarvis_alex,,0.0910306734928064,224.67079401119284,371.2246398925781,1.0811466
Mo5Ta,0.316,dft,jarvis_alex,,0.33253063468137,259.2843273923194,430.79388427734375,3.776248
PS2Zr2,3.969,dft,jarvis_alex,,0.56784917830817,200.67787058491336,266.5171813964844,3.0243516
NiOsTi2,1.665,dft,jarvis_alex,,0.4591200989032297,192.8403868166341,362.6907348632813,4.4802103
Pd2RuTa,0.014,dft,jarvis_alex,,0.2538183480678225,207.1974400523632,359.8554382324219,3.0184937
Rh2ScZr,1.83,dft,jarvis_alex,,0.4913405036317773,158.16399497369486,324.2266845703125,4.629641
O2PbY2,0.046,dft,jarvis_alex,,0.2897807287436661,135.43973735880795,301.38739013671875,2.0315359
MoOsV2,0.699,dft,jarvis_alex,,0.3633292086676561,298.99775458807056,448.0669860839844,3.0589736
Rh2SnZn,0.006,dft,jarvis_alex,,0.2466525207324718,137.2644254098558,325.9661560058594,1.0164381
P2ScTi,0.28,dft,jarvis_alex,,0.3239196403981463,285.1091600014765,556.0697021484375,1.9288102
Al3BaFe,0.031,dft,jarvis_alex,,0.2662723156110482,245.36642146468125,359.7065124511719,2.556638
Be4VW,0.31,dft,jarvis_alex,,0.315494706311536,395.8699969549066,702.1439208984375,3.3907714
AlMgScY,0.0,dft,jarvis_alex,,0.1972266465130686,200.7171299490676,402.9903564453125,2.5363657
Hf2PdRe,0.013,dft,jarvis_alex,,0.2570222524260442,168.34521759223833,260.1643371582031,3.7108903
Li2NiSn,0.008,dft,jarvis_alex,,0.2448814138033158,212.9286703344717,325.5960388183594,1.8897896
Tc5Zn,5.608,dft,jarvis_alex,,0.607039422533882,230.42372079005224,446.6478271484375,4.015065
Ni2PtZr,0.0,dft,jarvis_alex,,0.0922182729127275,190.3835305260045,381.2865295410156,1.0503707
Be2GaNb,0.0,dft,jarvis_alex,,0.1921501943335202,362.20580477017006,558.2574462890625,1.0394464
Al6TaTi,0.0,dft,jarvis_alex,,0.1268634998071853,332.5999643583293,574.23828125,3.5067325
Tc2TiZr,2.343,dft,jarvis_alex,,0.4768429491177072,229.86499496257167,376.5014953613281,3.7082136
In2LiPt,0.256,dft,jarvis_alex,,0.3636417634622536,108.68017179975236,270.4278259277344,1.1191181
GaH2Sc2,0.235,dft,jarvis_alex,,0.3261211368516833,225.7597578033376,517.7778930664062,1.7929361
BeMoPt2,0.132,dft,jarvis_alex,,0.3061006566366095,222.78964338746425,382.8494567871094,1.5978962
MgNi4Sn,0.259,dft,jarvis_alex,,0.3457022245240641,157.4789647408137,374.5751647949219,5.517933
B2Ni2Sc,0.858,dft,jarvis_alex,,0.3534754324840509,443.76573005118,691.459716796875,3.4655545
GaNbOs2,0.0,dft,jarvis_alex,,0.1473041200450359,200.4293153781094,386.1313171386719,0.1809294
MoTaW4,0.002,dft,jarvis_alex,,0.2219139931027886,230.1939570910816,365.9783630371094,2.5152175
Hf2Ni2P4,0.414,dft,jarvis_alex,,0.3481375710857209,238.7079043053195,406.6138610839844,5.4820147
InNi6Sn,0.0,dft,jarvis_alex,,0.1498920481756993,204.543947802893,353.9717712402344,8.111107
CSbSc3,1.37,dft,jarvis_alex,,0.419979523273095,245.41795414421068,508.6044616699219,3.2371478
AsSiV6,9.081,dft,jarvis_alex,,0.6560561659347569,298.833069518383,448.2418518066406,11.322763
RhTa2V,3.638,dft,jarvis_alex,,0.5792488616905863,172.34602896236055,316.8838806152344,3.3869452
LaNb2Ru2,2.727,dft,jarvis_alex,,0.5570261695235711,147.07731556007278,250.20916748046875,3.5519197
Be4Cu2,0.0,dft,jarvis_alex,,0.1627061699088915,479.0446656445171,783.1529541015625,1.4503322
CdLa2O2,2.115,dft,jarvis_alex,,0.5288009429090057,136.8002039190708,285.3860778808594,3.1319015
MgPt2Rh,0.12,dft,jarvis_alex,,0.3099824849861442,179.51843824763495,317.906982421875,3.2312174
PtTc2Zr3,0.021,dft,jarvis_alex,,0.2621775326885966,203.8436196855441,304.54156494140625,1.7375838
CuPt2Rh,0.028,dft,jarvis_alex,,0.2701543278383335,182.26486503159703,288.7226867675781,4.2949586
BeRh2W,1.506,dft,jarvis_alex,,0.4529707669590632,185.5844053357148,447.4787292480469,2.2071075
RuV2,1.004,dft,jarvis_alex,,0.3824773472573436,307.7998609853588,424.6271057128906,2.4108388
Be4TcTi,0.888,dft,jarvis_alex,,0.3594598572368829,408.02509609831975,763.74072265625,3.9612107
GeNb6Sn,14.142,dft,jarvis_alex,,1.1375064008153328,156.15495553140912,272.14727783203125,14.674549
C2Nb4S2,11.005,dft,jarvis_alex,,0.7507563728441026,257.0362295720775,531.55517578125,5.600901
AlCuRh2,0.003,dft,jarvis_alex,,0.2318850097490517,198.78509497948605,373.9546203613281,4.2526016
Al3CuSr,0.14,dft,jarvis_alex,,0.3072647554023789,227.67092167230047,368.4176940917969,2.149378
LiNbPtRu,0.0,dft,jarvis_alex,,0.1661241324156504,197.59929347865807,323.03375244140625,1.768897
OsTa2W,0.214,dft,jarvis_alex,,0.3278199578529852,197.6344992061456,351.5267944335937,1.6050097