formula,Tc,tc_source,dataset,pressure_gpa,lambda,wlog,debye_temp,dos_ef
RuY,0.194,dft,jarvis_alex,,0.3302697949178097,168.566858294734,294.5554504394531,1.7071276
Ge2Ni2Pd2,0.0,dft,jarvis_alex,,0.1169501685376736,169.98697569829184,314.92315673828125,1.3739741
CoGe3Sr,0.296,dft,jarvis_alex,,0.3434707231705596,188.9695450503382,310.0860900878906,2.3089178
AlV2W,1.049,dft,jarvis_alex,,0.3974320026715136,255.2843475697291,447.865478515625,3.5159345
HLa2N,1.838,dft,jarvis_alex,,0.443858259708795,248.9390906086041,381.8451843261719,1.3957138
CdLiY2,0.713,dft,jarvis_alex,,0.4120241060813677,141.525284236807,236.96047973632807,7.085508
Ni2P2Y,0.006,dft,jarvis_alex,,0.2384802482235678,256.2726845183132,502.8993835449219,1.9803324
Nb,13.846,dft,jarvis_alex,,1.0267308322233817,179.26603893199436,198.50485229492188,2.1909482
BaO3Ta,0.0,dft,jarvis_alex,,0.2058907639914792,382.3057354943059,501.8374938964844,1.2031094
FeV3,1.185,dft,jarvis_alex,,0.3920720620940501,312.4708383960637,455.2878723144531,1.9534845
Co2CrZn,1.232,dft,jarvis_alex,,0.4033168478319432,275.9083713572288,463.0242614746094,4.0480275
NiRh5,0.399,dft,jarvis_alex,,0.3436709107126232,253.7137651321034,452.1641540527344,8.884855
MgRh2Sn,0.0,dft,jarvis_alex,,0.1650766787011982,173.55107511725473,325.1875,2.0210454
AlRu2Ti,0.131,dft,jarvis_alex,,0.2999587045241677,269.48743249451456,471.5752868652344,2.90899
La2OSc2,0.434,dft,jarvis_alex,,0.3753945409405634,149.18620931377063,318.4929504394531,5.136604
CoNbRuZn,0.0,dft,jarvis_alex,,0.1227320778188512,233.25089414183705,381.78564453125,0.77777416
CY2,0.061,dft,jarvis_alex,,0.2797413765102722,263.8355321010462,303.4980163574219,1.9139899
Ga2Ni4Zr2,0.142,dft,jarvis_alex,,0.3102481213052081,211.2978597538549,382.5993957519531,8.666105
O4Ru2,9.786,dft,jarvis_alex,,0.5862618381415237,446.0766140338965,544.7176513671875,8.078809
GaReTi2,0.002,dft,jarvis_alex,,0.2218955321676996,254.6285622800536,349.3307189941406,1.041641
Rh2VW,2.927,dft,jarvis_alex,,0.5119256144788169,214.86602596056812,455.9465637207031,3.36671
HInTi3,4.162,dft,jarvis_alex,,0.5525080754230229,230.7637649837034,366.8889465332031,4.823784
MoRhV2,8.003,dft,jarvis_alex,,0.819093141238637,154.73927233741958,397.8670349121094,4.4012785
AlTi3,2.722,dft,jarvis_alex,,0.4799198388822404,259.7663524179347,500.69573974609375,5.363711
Cu2Ni3Y,0.0,dft,jarvis_alex,,0.191743614649662,184.03239472623184,376.9405212402344,5.151385
Nb3Ru,0.137,dft,jarvis_alex,,0.3035072489261683,250.98133477859804,358.9795227050781,3.3541484
GeLiPt2,0.764,dft,jarvis_alex,,0.4570927274667439,90.06331102833695,285.2693786621094,1.0472189
CoH6Li2Zn,0.94,dft,jarvis_alex,,0.3522479313274953,497.4656131036224,461.8433227539063,1.2541552
AgAlLiZn,0.254,dft,jarvis_alex,,0.3438787683839796,160.3661105220967,321.2497863769531,0.6747827
MgPtTiZn,0.014,dft,jarvis_alex,,0.2611295775233356,143.8687037542325,311.8763122558594,2.9349492
Rh5W,0.923,dft,jarvis_alex,,0.3924757402695521,242.1338170154412,433.34515380859375,7.300376
AlHf2Zr,1.156,dft,jarvis_alex,,0.4359835532055821,171.4198597309538,298.2898864746094,3.1173313
C4Nb3Zr,10.998,dft,jarvis_alex,,0.6446433897041107,377.5377159859366,703.155517578125,3.2080472
AlPt2Zn,0.007,dft,jarvis_alex,,0.2500247426732987,136.48559573773278,329.4446105957031,1.304171
Al5Ni2Ti,0.0,dft,jarvis_alex,,0.1664482202584215,291.17748755294355,569.3604125976562,2.637507
PdRhSc2,0.007,dft,jarvis_alex,,0.2443421278576218,181.14736363290592,335.173828125,2.0862892
GeLa3N,3.43,dft,jarvis_alex,,0.6816811734263998,101.05186793290387,277.0394287109375,3.4632604
GaRhSc2,0.414,dft,jarvis_alex,,0.3760089869209163,140.8401799444654,358.8081970214844,2.3764021
NbRu2Sc,0.002,dft,jarvis_alex,,0.2228204719470113,247.7639020906827,400.4361877441406,1.4615312
Br2Sc2Si,0.026,dft,jarvis_alex,,0.2689531220289653,180.7435705563073,245.13949584960935,1.2599188
Al3Hf,0.52,dft,jarvis_alex,,0.3589692929882889,241.137269076202,364.3088684082031,1.1699736
C2Hg2Sc4,1.865,dft,jarvis_alex,,0.5224803571953796,126.13564426442308,369.4752807617188,6.869381
AlCo2Mo,0.05,dft,jarvis_alex,,0.2751762010055757,259.9471647270921,560.8173828125,1.7931376
ReTiV2,6.061,dft,jarvis_alex,,0.5987186504749383,259.36157701370644,393.9871520996094,5.9342446
AuBe2Pd,2.746,dft,jarvis_alex,,0.535537546297121,169.61817068557193,298.1317443847656,1.2486145
Cu2In2Zr2,0.0,dft,jarvis_alex,,0.1985077633749566,185.12288254055088,334.1136779785156,1.3533128
AlPd3Zn2,0.558,dft,jarvis_alex,,0.4056752149422513,120.59509143675086,306.8946533203125,2.735645
ReTaVW,0.0,dft,jarvis_alex,,0.1961305980060663,237.5391387970732,340.2981262207031,2.904817
PtRh2,0.897,dft,jarvis_alex,,0.3996988687604898,211.54959463935865,378.7223510742188,4.685538
RuSbV,0.0,dft,jarvis_alex,,0.1290370524366721,207.5460627699151,306.9292907714844,0.025354
PtTi2W,1.325,dft,jarvis_alex,,0.4363953329728952,195.2460515186622,315.9037170410156,2.7430663
Fe2TcTi3,0.034,dft,jarvis_alex,,0.2650516247300349,283.4782883651022,505.0253601074219,3.1934917
H2PdSr,1.595,dft,jarvis_alex,,0.3829693508654214,483.6681941469776,334.0257873535156,0.92745227
HLaN2Tc,2.82,dft,jarvis_alex,,0.4407967092336486,394.8527985570354,493.2594299316406,1.1954793
Sc4,3.387,dft,jarvis_alex,,0.5534673874046971,187.2378898353056,302.6599426269531,7.7328186
Rh7Zr,0.546,dft,jarvis_alex,,0.362200272857102,238.36151343915068,432.8254089355469,7.3535085
NbPt2Ru,0.066,dft,jarvis_alex,,0.2886211914182213,202.593997551738,370.7696228027344,3.0618901
AlRe2,0.277,dft,jarvis_alex,,0.3366212477507549,206.2309678781549,411.7561340332031,1.411265
Nb2ReV,1.09,dft,jarvis_alex,,0.4051435327658979,237.92079424064724,328.4324035644531,4.333165
CaNiSi2,0.186,dft,jarvis_alex,,0.3167770832783363,229.95695978068773,471.3489990234375,1.7503184
AlLa3N,1.078,dft,jarvis_alex,,0.4482814516478666,139.2604661686676,303.2044982910156,2.3001163
Ga2V4,1.445,dft,jarvis_alex,,0.4180998976234557,265.51040909212554,459.2213134765625,5.9529424
MgNbRh2,2.499,dft,jarvis_alex,,0.5378571653541584,152.4895342727099,365.8929748535156,4.098523
AgLiMgSc,0.075,dft,jarvis_alex,,0.2929269802937578,195.90223929285943,313.7690734863281,5.957636
Ca3NSn,0.001,dft,jarvis_alex,,0.2135843101106156,218.2857289495569,337.1828918457031,4.76587
H4Ni4,0.009,dft,jarvis_alex,,0.2441812400354166,246.48023034503487,472.7753601074219,4.85888
AgHLi2Pt,0.001,dft,jarvis_alex,,0.216225037023836,316.15235811226967,276.0212097167969,1.304887
MnNb2Re,0.012,dft,jarvis_alex,,0.2459562131460833,277.38356274690074,348.3836975097656,1.0905099
BRh2RuY,0.065,dft,jarvis_alex,,0.2869449628720932,209.6486046256176,418.9004821777344,2.9512622
GaHTc2,6.119,dft,jarvis_alex,,0.5989474190629303,260.2745470890499,452.4469299316406,3.2728343
CdLa2Pb,1.799,dft,jarvis_alex,,0.5959220111089853,77.87190995010656,146.4736785888672,3.3367002
HRhRu2V,4.399,dft,jarvis_alex,,0.5481305396293049,250.65221470402625,454.5826416015625,3.3673244
CuTiZr2,3.615,dft,jarvis_alex,,0.5756390328262463,174.931188540579,307.4749450683594,2.981848
OsTi2Zr,2.382,dft,jarvis_alex,,0.4744404330951556,238.6745225356669,380.7900390625,3.9397736
Be3CuRh2,0.029,dft,jarvis_alex,,0.2608753472247177,297.504615090209,502.7197265625,1.7163383
HfRh2Si2,0.271,dft,jarvis_alex,,0.3446479794957123,168.08422209569147,429.1513366699219,1.9207909
NbPtTi2,6.462,dft,jarvis_alex,,0.6698120943665961,200.47798198707991,327.4783935546875,3.7843213
RhRuTi2,4.403,dft,jarvis_alex,,0.596123392726585,190.75484004503235,460.5028381347656,2.664918
AlLaNY2,0.185,dft,jarvis_alex,,0.3274736137395653,171.89771941127464,352.2779235839844,2.545576
CoRuScSn,0.0,dft,jarvis_alex,,0.0748740870090825,248.9935149513733,405.0402526855469,0.8443657
Nb2TcW,0.023,dft,jarvis_alex,,0.2602001448873974,249.39317148284755,374.4898376464844,1.8535163
NiRhV2,3.281,dft,jarvis_alex,,0.5071362909593787,250.0004726252896,473.6243591308594,4.363106
CaNSr,0.0,dft,jarvis_alex,,0.0898085209921998,276.86152250570103,311.19879150390625,0.89646053
Al5Ni2Zr,0.0,dft,jarvis_alex,,0.1788997140965481,276.16913529091784,556.292236328125,3.718803
Ga4HfTi2,0.645,dft,jarvis_alex,,0.3883339045921649,179.91617494443994,381.9820251464844,5.125564
RhRu2W,1.115,dft,jarvis_alex,,0.4067693004710887,238.1755400233521,451.5897521972656,3.4039443
AlOSc3,0.422,dft,jarvis_alex,,0.3390293373375998,297.1023847097777,522.47412109375,2.7040353
Ba2CdHNa,0.46,dft,jarvis_alex,,0.4264992727614078,75.98701664007672,163.96546936035156,3.4102292
AlCr4Mo,1.591,dft,jarvis_alex,,0.4077514786912357,335.29286387715354,524.384765625,4.048806
FeV3,0.379,dft,jarvis_alex,,0.3323436659639154,312.29538564309155,503.4223327636719,2.3302171
AlCuPt2,0.0,dft,jarvis_alex,,0.1481028545179638,152.10398160065222,331.01385498046875,0.7971362
Ba2O5Ru,8.714,dft,jarvis_alex,,0.9189289616780006,134.49374808528387,267.5304260253906,0.4617344
InLiRhSn,0.475,dft,jarvis_alex,,0.3867924279672722,135.73774455408048,313.0954284667969,0.77362347
GeHfRu2,0.0,dft,jarvis_alex,,0.0263927426712054,260.3217668960533,376.7348327636719,0.014864778
Be4RhZr,21.114,dft,jarvis_alex,,1.0533271156701518,259.0658607134386,662.3534545898438,3.2543204
Al2PtTc,0.012,dft,jarvis_alex,,0.2504618506435999,228.2012457884584,415.1709289550781,2.8839712
Ti2W,12.311,dft,jarvis_alex,,0.9209133561948812,191.0140656646277,388.3957824707031,4.760846
O2Zr6,1.842,dft,jarvis_alex,,0.4639767892121074,203.2324772811017,366.6339416503906,6.903789
OsTa2W,0.001,dft,jarvis_alex,,0.2146235789154378,216.0762296595383,348.3562927246094,1.0284712
BPbTi3,0.432,dft,jarvis_alex,,0.3604310121310706,194.7677624000646,440.27044677734375,4.5016174
Al2FeLi,0.002,dft,jarvis_alex,,0.2242694410781381,298.23018102966427,563.244384765625,1.7951351
NiRuSc2,0.0,dft,jarvis_alex,,0.141498347458114,233.38897455141384,392.7537536621094,1.3923227
Be3Mo,0.0,dft,jarvis_alex,,0.1682129584430982,478.3229108805716,818.970947265625,1.6935321
NiReRh6,0.91,dft,jarvis_alex,,0.3916208643587281,241.86587393646468,446.3700866699219,7.8589025
Be4TaW,0.767,dft,jarvis_alex,,0.3624701586993704,332.49860868280075,571.3986206054688,3.3373916
OsRe2V3,1.592,dft,jarvis_alex,,0.4235350885849711,273.45192798031934,415.3044738769531,3.8078084
LaNiSi3,0.084,dft,jarvis_alex,,0.2880751484068864,262.357982206684,451.5100402832031,1.5649172
ReTi2,3.146,dft,jarvis_alex,,0.5050373744382527,243.3749181223628,377.2925109863281,2.8888073
LiMgRhZn,0.003,dft,jarvis_alex,,0.2333199954971499,185.8135192238972,320.7209777832031,1.3714403
Cr6Mn2,12.705,dft,jarvis_alex,,0.7547335512562368,295.70940079105713,569.919189453125,11.169023
Cu2PtZn,0.0,dft,jarvis_alex,,0.1349986534802084,167.4541572405455,294.3481750488281,0.750456
FeSiTcV,0.026,dft,jarvis_alex,,0.2590248784435106,299.3285429213859,505.1152648925781,1.1908699
Al4Ni3Pt,2.693,dft,jarvis_alex,,0.715167006262343,70.32422987190895,471.1511535644531,4.3958287
NbTc2Ti,0.14,dft,jarvis_alex,,0.3015010815700598,273.9963513396969,405.7967224121094,3.3954096
MgPd7,0.0,dft,jarvis_alex,,0.1943487446148856,179.86688522623376,271.9783020019531,10.210571
AlRu2V,0.0,dft,jarvis_alex,,0.1833478664633835,287.5054097874858,524.3472900390625,0.8524045
HRu2,2.635,dft,jarvis_alex,,0.4652707677413294,286.9184687859182,524.150146484375,2.1207404
Al3Zn,1.292,dft,jarvis_alex,,0.411520500135763,258.5239422533954,465.8418884277344,0.8075907
LiMoRhRu,0.001,dft,jarvis_alex,,0.2212824353310158,233.407689157492,393.5008850097656,1.9804496
AlHRh3,2.147,dft,jarvis_alex,,0.477971363914887,207.5347384280537,422.6686096191406,4.1180215
Al3Ni2Ru,0.001,dft,jarvis_alex,,0.2175652554477369,242.8144834489421,520.4696655273438,1.7650661
Mg3Sc2Y,0.084,dft,jarvis_alex,,0.2993966787972771,175.0688647323786,337.5014953613281,8.830833
CClSc2,0.003,dft,jarvis_alex,,0.22431593861945,385.6454224751776,419.7252807617188,1.9825828
NbZn3,0.0,dft,jarvis_alex,,0.1904055884321481,211.7232406517045,401.96588134765625,2.2175524
BeMnOs,0.177,dft,jarvis_alex,,0.3106999576751075,259.7835208615776,501.18499755859375,1.2649925
NbV4W,0.391,dft,jarvis_alex,,0.3377909390877902,283.97939041713505,289.96905517578125,4.1588655
H2V2,0.354,dft,jarvis_alex,,0.330008665605831,308.3303960936,697.9450073242188,0.878425
Co2Ga3Ti3,0.507,dft,jarvis_alex,,0.3546260662706431,256.3580860183421,440.0236206054688,5.488064
Cr4Ti4V4,5.566,dft,jarvis_alex,,0.604248067320314,231.34441950333928,470.9354553222656,22.136944
CCoHgY2,0.741,dft,jarvis_alex,,0.4120463863266287,146.96814545440589,315.0476989746094,2.9068477
La2SnTl,1.312,dft,jarvis_alex,,0.52698676926929,86.1352781556619,161.73301696777344,3.1371808
C2HfNb,5.499,dft,jarvis_alex,,0.5153796702669571,392.2144480418962,585.2544555664062,1.1768836
PbSSc2,0.064,dft,jarvis_alex,,0.2946527898016299,157.48724436570004,330.3847351074219,1.5451373
Co2HOsV,2.254,dft,jarvis_alex,,0.4621664679370376,253.00949357343555,459.4089050292969,3.629728
Al2C2Zr4,0.244,dft,jarvis_alex,,0.3224149543299403,258.5627228815947,535.567626953125,2.74636
Be4Hf2,1.067,dft,jarvis_alex,,0.3885817442461998,295.9842196151384,503.3038024902344,3.615655
HfIn2Ti,0.028,dft,jarvis_alex,,0.2709356846024028,176.8823611105425,290.4295349121094,3.2843504
BrCY2,0.055,dft,jarvis_alex,,0.2754629950901283,284.6907667912361,339.65777587890625,2.0317369
AsSc2Te,0.0,dft,jarvis_alex,,0.1693940427272071,214.7063533284056,316.5182189941406,2.8840024
CuMoPd2,0.081,dft,jarvis_alex,,0.291259091558428,224.98496124068043,349.06121826171875,2.9041736
OsRhTi2,3.168,dft,jarvis_alex,,0.5392686584008543,191.51884486247565,404.9092102050781,2.8460171
AuBe5,1.298,dft,jarvis_alex,,0.4292456384822178,207.5084064972741,546.5262451171875,0.8662173
Cu2LiPd,0.0,dft,jarvis_alex,,0.1380767699040515,208.18957944885776,302.72442626953125,0.78079116
Al2LiOs,1.223,dft,jarvis_alex,,0.4368303853400333,179.0749919711621,385.2847595214844,1.5381839
Pd2RhTa,0.0,dft,jarvis_alex,,0.1479282148511684,205.3835707869925,352.9113464355469,0.68895876
Ni2Si2Zr2,0.003,dft,jarvis_alex,,0.2255926630403744,279.78255013003576,491.3414001464844,3.673976
Co2P2Zr,0.715,dft,jarvis_alex,,0.3721449114640221,260.3275869385517,498.0541687011719,3.7490711
AuLiZn2,0.636,dft,jarvis_alex,,0.4155861972626051,120.4040217921908,237.3844757080078,0.634061
PtRh,0.877,dft,jarvis_alex,,0.4056661957949195,190.0576462219765,336.9042358398437,3.2118042
Cr5V3,0.186,dft,jarvis_alex,,0.3044590857863479,329.7301099432973,535.7659912109375,5.379831
LiMg2Sn,0.626,dft,jarvis_alex,,0.3923906221404838,163.89528454685575,331.8323059082031,0.9183626
AsCu3,0.417,dft,jarvis_alex,,0.3638951625154619,176.33722671178143,307.2743530273437,1.0348139
S2ScY,5.533,dft,jarvis_alex,,0.6382256348036003,195.90043497555007,430.9501037597656,1.1443654
CH2V2,1.278,dft,jarvis_alex,,0.3701645303385892,481.3501554524151,690.4741821289062,3.1182945
Co2HRhTi,0.014,dft,jarvis_alex,,0.2475569777424455,307.91406782421467,483.7521057128906,3.7343554
Ca2CdSn,0.001,dft,jarvis_alex,,0.2223704952418066,111.5125340257974,266.2087707519531,0.23645331
GaNb6Rh,12.606,dft,jarvis_alex,,0.9510884430962409,185.494543547018,367.1476135253906,9.232522
Mn4MoNb,17.328,dft,jarvis_alex,,0.999996604467192,234.6217398554253,452.0157470703125,9.974408
Mn4Si2,0.186,dft,jarvis_alex,,0.3012132008955178,366.04977925183846,632.31591796875,3.631464
Al2CdZr3,0.677,dft,jarvis_alex,,0.3879337041891071,190.17335972598315,369.6841735839844,5.454416
Mo2Tc3Ti,10.232,dft,jarvis_alex,,0.816227657034344,200.65527799794643,433.8412170410156,3.6137898
BeGaZr,0.202,dft,jarvis_alex,,0.3179647790984074,241.28302540863464,467.9504089355469,1.2229447
Zr4,15.347,dft,jarvis_alex,,1.944101428182232,90.22510941320624,250.5548858642578,6.796526
NiZn2,0.004,dft,jarvis_alex,,0.2377967439379552,157.35781092264847,314.7175598144531,0.7623875
RuSc2Zn,0.384,dft,jarvis_alex,,0.3593949544582215,176.43015922353425,356.3331604003906,1.9300202
Cr2MoV,0.041,dft,jarvis_alex,,0.2658044064697482,327.066632598743,463.5423278808594,3.0800076
NiSi2Sr,0.122,dft,jarvis_alex,,0.300665933500299,243.70951036140804,410.4633483886719,0.7251059
Al2PdRu,0.0,dft,jarvis_alex,,0.1293451341584303,276.3913011530645,448.4971618652344,0.90293324
ReTa2V,0.799,dft,jarvis_alex,,0.3875408010213447,225.84387332757777,328.6500549316406,4.9299316
Cu3Pd2Y,0.0,dft,jarvis_alex,,0.1710963201005846,153.253941398361,303.3366394042969,1.5311916
Li2Zn,4.409,dft,jarvis_alex,,0.6107508555364219,176.74646449919953,341.3013610839844,0.5913971
Ni2Rh2,0.04,dft,jarvis_alex,,0.2705231548180805,258.84815705823377,412.0655212402344,6.6199565
Tc2TiW,0.012,dft,jarvis_alex,,0.2469109544338491,267.00319737195235,421.6138610839844,1.293442
LiRh2Sb,0.0,dft,jarvis_alex,,0.2109125038061664,170.31632390879517,300.7236328125,2.4930263
Al5Rh2Zr,0.005,dft,jarvis_alex,,0.2338879320778996,282.75388431640164,510.4348449707031,4.139562
Li4P2Y,0.004,dft,jarvis_alex,,0.2277232054147567,325.60992770322457,469.5748291015625,2.2205865
B2Hf,0.0,dft,jarvis_alex,,0.1242816636151007,488.31450306802986,704.2164306640625,0.18818478
BiIn2La,1.21,dft,jarvis_alex,,0.494032947914062,102.25133546475136,175.0961151123047,2.7103317
Co2Ni2P2,0.0,dft,jarvis_alex,,0.1609294995426914,301.3532657429968,468.5833129882813,3.3316221
N2Ti4,0.26,dft,jarvis_alex,,0.3106632560274407,382.2844975345699,675.0386962890625,3.3602529
HfZr2,3.011,dft,jarvis_alex,,0.5581951639078909,161.64796784063537,245.14556884765625,2.0986612
Mo3Ti,1.361,dft,jarvis_alex,,0.4185391615372847,248.831362494496,446.8069763183594,3.292197
P2Y3,0.0,dft,jarvis_alex,,0.1999824675790699,173.6554107284329,433.1701965332031,4.001031
NbTaW4,0.005,dft,jarvis_alex,,0.2364484626843933,208.7562614376997,342.0260925292969,2.9596822
Ru5Ta,3.803,dft,jarvis_alex,,0.5404875639090982,228.58718788507645,426.7389221191406,7.963872
AlHHfZr2,1.319,dft,jarvis_alex,,0.4301977318438696,208.5843708699921,380.2681579589844,1.9064322
HgInTi2,0.059,dft,jarvis_alex,,0.2848762782255813,206.12365696623385,298.6065673828125,5.0881166
MgNi2Sn,0.043,dft,jarvis_alex,,0.2835437532140846,157.33904799351853,350.6639709472656,1.8846676
HInNi3,0.0,dft,jarvis_alex,,0.0989657965134266,276.8777422243116,385.1599426269531,0.751678
AlHScZr2,0.506,dft,jarvis_alex,,0.3562099807935974,247.527552904187,456.6121215820313,2.5658677
Mo5TiV4,3.819,dft,jarvis_alex,,0.5336078487642113,239.9312514564062,437.906005859375,11.940792
CInTi2Zr,0.156,dft,jarvis_alex,,0.3101448549335409,233.1055830596685,505.3429870605469,4.401681
CuFeSc2,0.085,dft,jarvis_alex,,0.2971944277706929,191.8047350432768,388.4158935546875,2.689281
Co2Ge2Mg2,0.1,dft,jarvis_alex,,0.303727856114413,180.99813287245016,426.4456787109375,4.3270855
Zr3,6.837,dft,jarvis_alex,,0.7583095677121714,157.08514958132258,255.04579162597656,2.921827
CoHRhV2,3.714,dft,jarvis_alex,,0.5226210541094464,251.294258751946,506.3656311035156,3.4450521
HfRu2Sc,0.0,dft,jarvis_alex,,0.1759094418123042,222.1015745640501,359.4422912597656,2.0597408
H2Sc2,0.213,dft,jarvis_alex,,0.3074701971011535,344.05745393181485,599.2735595703125,0.7375111
Nb2RuTc,12.096,dft,jarvis_alex,,0.9294165810726276,185.4499859496965,401.0576477050781,3.5103335
GaRh2Zn,0.0,dft,jarvis_alex,,0.0940640301765165,193.05221497784652,397.2684326171875,1.3424656
Ga2PtRu,0.83,dft,jarvis_alex,,0.4468869952018454,108.80549174648478,326.2673034667969,1.0210304
Ga2LuSc,0.26,dft,jarvis_alex,,0.3500387002631423,144.13441965803412,282.244873046875,1.9859003
V4Zn,11.586,dft,jarvis_alex,,0.9376958900376144,172.8985302465721,425.0006103515625,6.674988
Mo2ReTi,0.165,dft,jarvis_alex,,0.3075623992088346,265.67192331846746,414.1728515625,2.0221226
Mn4MoRu,5.27,dft,jarvis_alex,,0.5584416181417173,282.53484801834105,475.3007507324219,2.8862553
AlLiNiZr,0.0,dft,jarvis_alex,,0.0403782517312207,273.0849722243488,382.0760192871094,-0.1109807
BeNiRuSi,0.015,dft,jarvis_alex,,0.2505674694327398,264.7293152636807,548.6846923828125,1.0688486
RuScY,0.007,dft,jarvis_alex,,0.2445402247528394,172.14050449980638,307.5334777832031,1.2221845
CdMo2Ti3,8.306,dft,jarvis_alex,,0.747074460423549,196.8612117816413,382.9580993652344,6.4375677