formula,Tc,tc_source,dataset,pressure_gpa,lambda,wlog,debye_temp,dos_ef
CuMoPt2,0.03,dft,jarvis_alex,,0.2684807303496723,214.6024554328665,338.65966796875,3.22886
LiMoOsSi,0.197,dft,jarvis_alex,,0.3161042780642301,248.1482665544952,399.0744934082031,2.2130508
CMgNi2Ru,0.077,dft,jarvis_alex,,0.2914604779994628,212.2020911189225,476.5603637695313,1.799795
NbOsRhZn,0.0,dft,jarvis_alex,,0.1323466653561807,202.3036499653996,330.0519104003906,0.7507418
O2Pt2Ti6,8.406,dft,jarvis_alex,,0.8994496119775511,134.74469104434874,335.8487854003906,17.97848
CMgSnY2,0.001,dft,jarvis_alex,,0.2120264985860855,254.7955393827207,387.8194885253906,0.7519303
GaMo2Ti3,9.059,dft,jarvis_alex,,0.7672063185073739,202.3739323520064,444.4829406738281,8.110181
InRhRuSc,0.025,dft,jarvis_alex,,0.2659587562699376,201.51543453805184,370.0411071777344,3.2210114
Re4,5.355,dft,jarvis_alex,,0.6582547195522988,174.32408494981595,392.1933288574219,2.7059748
Cu2GaPt,0.11,dft,jarvis_alex,,0.3135337446450981,148.36417844791703,307.3886413574219,1.8192108
IrRhVW,2.387,dft,jarvis_alex,,0.4877760049106197,212.62615407352573,437.57177734375,3.5179667
AgRuY2,0.001,dft,jarvis_alex,,0.2249030973609315,147.0241106682811,254.47792053222656,3.549251
CaNiP,0.128,dft,jarvis_alex,,0.3001887510459202,260.8708206516212,445.8425598144531,1.8110181
Os5Tc,2.576,dft,jarvis_alex,,0.4870602961838928,231.13625588146127,486.9646606445313,2.9543605
ZnZr3,3.654,dft,jarvis_alex,,0.5817147876760664,171.20180862265482,282.433837890625,3.0379715
Be4FeNb,6.066,dft,jarvis_alex,,0.5514040932379809,338.5980166649034,736.796142578125,2.708864
NbSnTc2,0.015,dft,jarvis_alex,,0.2546101780004099,217.4549358703347,355.4147644042969,3.4377081
RuTcV2,5.016,dft,jarvis_alex,,0.5621362545070914,263.26478996217975,451.8432312011719,3.0866978
Fe2MgP2,0.012,dft,jarvis_alex,,0.2442288988895277,330.32284297271275,556.3779296875,3.7393296
Tc2TiW,0.016,dft,jarvis_alex,,0.2527994781486112,257.0950393645929,405.7261657714844,1.4623866
CInTi3,0.033,dft,jarvis_alex,,0.2654257000035346,267.0764499536903,533.9795532226562,4.0304093
CdRh2Ti,0.0,dft,jarvis_alex,,0.1427262085102303,208.1224810129089,336.6403503417969,1.3366926
AlCoRhSc,0.0,dft,jarvis_alex,,0.0841841629458231,286.344662922274,475.0681762695313,0.9716618
MoNbTaW,0.236,dft,jarvis_alex,,0.3276815274801563,218.61306774821267,354.7052001953125,2.695847
Li3,0.582,dft,jarvis_alex,,0.3701769199004664,219.4483509194096,380.84375,1.2599562
FeGaOsV,0.004,dft,jarvis_alex,,0.2310499457880727,265.6259832284148,437.9858093261719,0.6400717
CSc3Si,0.002,dft,jarvis_alex,,0.2279796983593328,217.60481597012617,633.1417846679688,2.6930397
In2LiTi,0.177,dft,jarvis_alex,,0.3311617009221632,149.9364360028895,317.01513671875,3.253143
Mg4Sc2,0.045,dft,jarvis_alex,,0.2783454577554617,205.41710263654645,350.2603454589844,5.890477
CrMnV2,0.078,dft,jarvis_alex,,0.2794162388869279,341.987274019093,572.7945556640625,1.9079541
MoNbTcV,0.135,dft,jarvis_alex,,0.2995407128133686,282.16144874438174,402.077392578125,2.3857472
HfRu3Sc2,0.011,dft,jarvis_alex,,0.2496116049212636,219.5767577690108,377.0880432128906,5.8975897
CuRh2,0.092,dft,jarvis_alex,,0.2921145500184461,246.93413702998217,400.5891723632813,2.8841279
BePd2Zn,0.007,dft,jarvis_alex,,0.244990478153859,185.73968673608795,380.9339294433594,0.6838173
NPdV2,2.434,dft,jarvis_alex,,0.4606347373511895,277.2770335687913,560.111572265625,3.4874735
Ga2PdTi,0.554,dft,jarvis_alex,,0.385617978826229,161.1031251012058,308.3211975097656,1.7374585
Mn4TaW,13.502,dft,jarvis_alex,,0.8693580109061464,233.2767367387953,421.1689147949219,9.061467
Au2Si2Y,0.191,dft,jarvis_alex,,0.3375175756991546,139.0088588767158,270.7613830566406,1.4150779
As2Ni2Zr2,2.667,dft,jarvis_alex,,0.5368752935381986,163.93502014149112,372.7752685546875,4.257992
Al5RhZr,0.106,dft,jarvis_alex,,0.2944347263501448,261.8549748070625,466.8513793945313,2.6651409
HNiRu2V,0.913,dft,jarvis_alex,,0.3884143191390749,254.36873438735927,486.5556335449219,2.2328558
As2V6,3.098,dft,jarvis_alex,,0.4701788701705677,323.20302747534885,390.5723571777344,4.862411
CoH3Y,0.363,dft,jarvis_alex,,0.3324615184500712,298.26729891832974,559.1774291992188,1.8844278
RhScZn2,0.263,dft,jarvis_alex,,0.351635698526709,140.99623532320575,317.9009094238281,0.8779099
Ru2,2.75,dft,jarvis_alex,,0.4748556244017334,274.9025319477843,545.9932861328125,2.578014
AlCaLiSr,0.341,dft,jarvis_alex,,0.3576888730244033,161.9190494320445,290.486083984375,4.467583
CdMgRh2,0.028,dft,jarvis_alex,,0.2784623237282497,125.97645967204274,312.54180908203125,4.703338
LiMgRh,0.005,dft,jarvis_alex,,0.2419036297699956,160.61470063613376,375.7713012695313,1.1592627
TcV2,0.006,dft,jarvis_alex,,0.2338848637812105,334.9333317352793,464.6687316894531,1.529488
HNiZn,0.298,dft,jarvis_alex,,0.3289404711364398,266.6025753574633,385.7239074707031,0.82393277
Nb2Zr2,15.512,dft,jarvis_alex,,1.361776499848665,135.44937063988257,240.83580017089844,5.167936
C4Cr2Sc2,4.15,dft,jarvis_alex,,0.4619826933811626,466.9537184065168,807.5327758789062,3.3734317
GeLiPdRh,0.002,dft,jarvis_alex,,0.2243839368257413,198.51451560539232,362.3287658691406,2.0391724
GeLiNiRu,0.0,dft,jarvis_alex,,0.158977255490023,218.450769637814,411.0152282714844,2.020834
AgAlLiSc,0.0,dft,jarvis_alex,,0.1070394388613153,258.40284338738377,320.72564697265625,0.65891784
Mo3Ta,0.026,dft,jarvis_alex,,0.2620184556732128,254.7508651557345,368.7012634277344,1.8257145
Mo2PtRu,2.915,dft,jarvis_alex,,0.5067815757914477,222.8880240496597,395.9377136230469,2.8930428
RuSc,0.976,dft,jarvis_alex,,0.4080880674830895,204.69464330513367,411.4393005371094,1.9477242
AlNbPd,0.0,dft,jarvis_alex,,0.1921370164943395,232.23445921989256,399.0210876464844,1.139193
Mo4Sc2,2.625,dft,jarvis_alex,,0.502600554996735,207.1511756123852,374.0042419433594,6.4135456
HfPdZr2,2.335,dft,jarvis_alex,,0.5495789480128888,131.94678668374445,260.3839416503906,4.060357
Fe2ReSi,0.075,dft,jarvis_alex,,0.2838657329378782,273.83093435583925,549.2965087890625,2.3514678
AlPtSi,1.244,dft,jarvis_alex,,0.4277674375792252,202.51781608050595,308.1473693847656,0.9564639
Hf2NiRe,0.02,dft,jarvis_alex,,0.2642122101734411,174.43312773200623,298.4019775390625,4.4072065
Al2Zn,1.42,dft,jarvis_alex,,0.434312724656721,214.1756849466702,420.8642272949219,1.0423827
LaP2Zn2,1.083,dft,jarvis_alex,,0.4256320554995486,181.0542487865217,362.1059265136719,1.9551774
BBeCo2,0.0,dft,jarvis_alex,,0.1758064652146251,382.6285485673335,707.0421752929688,1.6953988
TaTc,0.0,dft,jarvis_alex,,0.1658899747913635,253.8415428673854,393.0793151855469,0.6666991
NbOsScTc,0.328,dft,jarvis_alex,,0.3390849445242949,230.98428799807004,379.2767028808594,3.151355
InNiScZn,0.162,dft,jarvis_alex,,0.3336252991924436,129.47385788099788,317.3349914550781,2.6861799
Ti2V2,21.444,dft,jarvis_alex,,1.3361917903295408,192.2371763086209,400.5438537597656,6.248996
HgInZr6,0.738,dft,jarvis_alex,,0.3955105662514028,184.95767899985444,310.5310974121094,4.11501
GaOsTcV,1.649,dft,jarvis_alex,,0.4470149627381127,216.55240201851424,418.5706787109375,2.0714912
MgRh2Sb,0.63,dft,jarvis_alex,,0.4072750636410689,133.44265996318052,317.7641906738281,1.4904308
NiZn3,0.005,dft,jarvis_alex,,0.2398746516170573,179.21007723996843,322.4585266113281,0.8201024
Al5FeSc,0.002,dft,jarvis_alex,,0.2220128222616333,306.1783724536964,547.7933349609375,3.0322616
NbTa2Tc,0.174,dft,jarvis_alex,,0.3154447677522038,223.16919610935776,338.4505615234375,1.9803461
Al2LiSr,2.366,dft,jarvis_alex,,0.5588609485882103,125.885458201076,389.9251098632813,1.788994
CdHHf2Zr,0.268,dft,jarvis_alex,,0.3395124794840983,186.74013659556385,287.5890808105469,1.3232512
AsSbZr2,0.0,dft,jarvis_alex,,0.1342056996049229,207.78469375730364,338.08599853515625,0.5272897
HfTc2V,0.283,dft,jarvis_alex,,0.3293535583357996,250.86320737656143,385.4256896972656,3.0737932
HNbRhRu2,1.551,dft,jarvis_alex,,0.4292281320266132,248.281075611525,436.2420959472656,3.2715654
AlInZr2,0.643,dft,jarvis_alex,,0.3916034494873366,170.638782496911,361.3655090332031,2.9366734
Ru2Sc3Zn,0.159,dft,jarvis_alex,,0.319106721793811,183.56389144787647,366.0865173339844,3.053333
CSc3Sn,0.0,dft,jarvis_alex,,0.1500977332459768,324.0755711577316,516.8441162109375,2.9570136
NbReVW,0.002,dft,jarvis_alex,,0.2235183776132557,257.5476668401681,353.43524169921875,2.9789956
HPtRu2Ti,1.083,dft,jarvis_alex,,0.3964687118481158,266.97158827091386,400.6488342285156,3.7687135
AlGaZn,5.545,dft,jarvis_alex,,0.7855182513670549,116.80226291129658,352.07440185546875,0.949588
Nb2Zr,15.35,dft,jarvis_alex,,1.2236640533410108,153.9670131653743,225.82997131347656,4.2940392
RhZnZr2,7.895,dft,jarvis_alex,,1.0598466882168969,96.40897767626517,267.0689392089844,2.6300337
Nb4Ni2,6.121,dft,jarvis_alex,,0.6581233183312293,199.3649126403293,401.404296875,7.7038827
Ni4Sb2Zr2,0.205,dft,jarvis_alex,,0.3324497691672332,168.3445408258847,346.9885559082031,7.736402
AsLiRh2,0.282,dft,jarvis_alex,,0.3429726215552184,181.836012417743,394.8375854492188,1.355424
LiPdPtSi,4.129,dft,jarvis_alex,,0.73933448856155,99.58594256350544,296.9256591796875,2.910269
AlRh2Zn,0.0,dft,jarvis_alex,,0.1146043325503132,220.7700358052366,421.8232116699219,1.2232279
GaInSc2,0.152,dft,jarvis_alex,,0.3181345292501498,180.1009406912787,319.8306579589844,2.7729812
Sb2Ti2Y2,0.025,dft,jarvis_alex,,0.2662083738015252,192.87353049995207,295.582275390625,6.374945
LiRuScZr,0.855,dft,jarvis_alex,,0.4061461544841987,183.7474588388956,312.9969482421875,3.4929287
Re2TaZr,0.005,dft,jarvis_alex,,0.2369624579445196,213.55937150972983,318.3414611816406,2.8843207
HHfRh2Ru,0.793,dft,jarvis_alex,,0.3778643428807063,261.5453181456306,397.4794616699219,4.853897
Al5Co2Ta,0.0,dft,jarvis_alex,,0.1165286003402558,312.69555540602465,563.8870849609375,1.1918701
CdMgRh2,0.04,dft,jarvis_alex,,0.2872010014489066,127.0788557269922,305.5749816894531,3.551268
S2Si2Zr2,0.0,dft,jarvis_alex,,0.1782009397358149,345.46901726437005,532.0870971679688,0.8853055
CaLiMg2,0.179,dft,jarvis_alex,,0.3314671756612556,150.75595573896854,322.2740173339844,2.2628133
H2InTi2,0.303,dft,jarvis_alex,,0.3300093735988089,264.3403965244876,434.17724609375,4.063319
Nb2TcW,0.058,dft,jarvis_alex,,0.280471921825073,242.2474430834032,386.4725036621094,2.955588
NbO3Sr,0.002,dft,jarvis_alex,,0.2230507283521937,308.1621541145811,519.5790405273438,1.3045712
CoRhV6,2.765,dft,jarvis_alex,,0.4646903814612662,303.89178282744024,538.3052978515625,5.98115
FeHfMnTa,0.0,dft,jarvis_alex,,0.1567092368831056,259.87175864635,339.5189514160156,1.4242556
PSc2Te,0.0,dft,jarvis_alex,,0.168166963985321,252.82505609902643,363.0170593261719,2.8583832
Al3Co2Ti3,0.427,dft,jarvis_alex,,0.3421420793086105,280.99941059900226,539.251953125,3.9714515
HfOsRuZr,0.0,dft,jarvis_alex,,0.1261122577479941,231.6196273275552,331.6331481933594,1.3783507
BeCu,0.208,dft,jarvis_alex,,0.3068909419411236,341.9549084660561,524.2083129882812,0.9528917
Al3PtY,0.674,dft,jarvis_alex,,0.39504874298222,169.52213157802893,344.7631530761719,2.2842505
CoCrV6,7.728,dft,jarvis_alex,,0.6347271972402116,278.6312644537421,539.2698364257812,9.858884
MgRhSn,0.217,dft,jarvis_alex,,0.3408645816367021,146.43349636123384,277.5990295410156,2.0577075
SSc2Tl,0.042,dft,jarvis_alex,,0.2819927884782477,165.05987898857154,274.68572998046875,1.9041544
LiPt2W,0.007,dft,jarvis_alex,,0.242913857754892,190.7954559050288,305.04595947265625,1.7997901
ReTa2Tc,0.0,dft,jarvis_alex,,0.1784594190888845,236.7987399733388,372.8499450683594,0.99404514
H3Pd4,5.924,dft,jarvis_alex,,0.5568150056046353,319.2484498874824,318.5731506347656,7.7287273
CuTcTi2,1.722,dft,jarvis_alex,,0.4649093982280483,188.35468936276536,366.4811096191406,3.6948524
CPtV3,0.994,dft,jarvis_alex,,0.4142432102911201,191.5912998099465,449.1416320800781,3.8608856
RuTc3,9.124,dft,jarvis_alex,,0.713453470543052,242.37936026130672,507.8450622558594,4.112956
Be2CoTi3,2.813,dft,jarvis_alex,,0.5125553327301804,205.1716356136521,554.7308349609375,3.4877439
Li2NPbRu,1.535,dft,jarvis_alex,,0.458367977950629,178.7318278434854,363.7413635253906,1.027102
InLi2Ni,0.017,dft,jarvis_alex,,0.2595817207874484,191.56721314557464,291.2295837402344,2.0047839
KSe2V2,0.0,dft,jarvis_alex,,0.1532798682349186,158.68877242219858,261.4091796875,1.1703063
Tc2Zn2,0.662,dft,jarvis_alex,,0.3734293720796484,235.99123844947005,407.0997009277344,2.1298175
RuTcZr2,0.044,dft,jarvis_alex,,0.2757396741425971,226.94166293559343,371.8376159667969,4.2378945
AuNbZr2,4.992,dft,jarvis_alex,,0.6619949105580015,159.80354398682798,258.9828186035156,3.2261102
Ni2P2Sr2,0.038,dft,jarvis_alex,,0.2709236523702394,239.30609197213127,367.4881286621094,4.9870567
HfMgRh2,0.0,dft,jarvis_alex,,0.1095040340076133,188.8817004751069,295.2950439453125,2.3624241
Al5NbTi2,0.466,dft,jarvis_alex,,0.3474529370815795,273.0773543895841,584.7115478515625,4.9790983
ScTcW,0.008,dft,jarvis_alex,,0.2419124588593212,246.72254445541688,373.2127380371094,1.8218933
CdHLi2Pd,0.93,dft,jarvis_alex,,0.3829766142044523,281.7865124350445,290.4286193847656,1.54163
BeRh2Ti,0.009,dft,jarvis_alex,,0.2434515516953761,247.5651919743154,451.5821228027344,1.2508321
PdSi3Sr,2.668,dft,jarvis_alex,,0.485405969222249,242.2338603175833,365.2809143066406,1.1167648
Li2Rh,0.081,dft,jarvis_alex,,0.2997343515417012,166.608142072031,298.3230895996094,1.708005
AlSc2Zn,0.001,dft,jarvis_alex,,0.2222743036643718,210.9820887232433,410.0314331054688,2.834042
ScZn,0.142,dft,jarvis_alex,,0.3147988271662648,185.60447951174487,359.4119567871094,1.6410663
O4Ti3,14.787,dft,jarvis_alex,,0.8165505190960684,288.33054395004405,685.7156982421875,1.8740801
Al3PdSr,0.5,dft,jarvis_alex,,0.3672799416633091,198.5997725750332,315.7568664550781,2.5633142
GaGeNi,0.594,dft,jarvis_alex,,0.3796983149004551,190.42043433565857,347.24517822265625,1.5363396
NiTc2Ti3,0.858,dft,jarvis_alex,,0.3870900369132271,244.23596475208305,393.46002197265625,3.7408578
MoOsV2,1.1,dft,jarvis_alex,,0.3946271208374826,279.20619945029824,429.1040649414063,2.4300082
MgPd2Zn,0.0,dft,jarvis_alex,,0.1582127509335943,166.93160028922927,313.8251037597656,1.0902741
BeRh2Ru,0.628,dft,jarvis_alex,,0.3647426096094403,261.2525918680748,497.3713684082031,2.3415768
AuInLi2,2.108,dft,jarvis_alex,,0.603956093002277,87.32691628988164,235.65272521972656,0.9255111
NbSiTc2,0.257,dft,jarvis_alex,,0.3232492183340897,266.4608795906853,443.2911682128906,2.8717296
BaH3Pd,12.026,dft,jarvis_alex,,1.0681835745155313,144.42304803329026,315.1827392578125,0.837146
Al4HfTi2,0.626,dft,jarvis_alex,,0.3731511599444648,223.9699685414501,441.9850769042969,5.1582074
Ca2Ni2Si2,0.369,dft,jarvis_alex,,0.3488136903210563,210.00246557301105,361.4332580566406,3.5858448
KNi4P3,0.132,dft,jarvis_alex,,0.3072452719264774,215.58996990610487,354.8716735839844,6.5935006
MgRuSc2,0.002,dft,jarvis_alex,,0.2257401355127179,224.07789662410303,358.0888366699219,1.9691962
GaRh2V,1.94,dft,jarvis_alex,,0.4766696672768257,190.42025399243155,427.7095642089844,2.818735
HLi2,3.015,dft,jarvis_alex,,0.4398376571866164,426.82640574035753,618.9641723632812,0.7290926
Ni2Rh3Sr,3.994,dft,jarvis_alex,,0.646551292546593,136.10033286160888,298.0113220214844,7.4434376
CaMgTl2,0.067,dft,jarvis_alex,,0.3073448911788454,108.0627684139466,164.89085388183594,0.030993398
NTi3Zn,0.343,dft,jarvis_alex,,0.3366454818332215,255.35365575894843,473.5805969238281,3.8569343
OsRuTaZn,0.248,dft,jarvis_alex,,0.3380510990752781,178.61803048483625,344.5007629394531,3.1663177
Mo2NbTi,6.144,dft,jarvis_alex,,0.6392406962156955,216.75239181569853,415.8724670410156,4.644628
GeOsTaTc,0.001,dft,jarvis_alex,,0.2191982692410564,182.1387255706538,353.77008056640625,0.62616485
CrTc2Ti,1.338,dft,jarvis_alex,,0.4058343336206989,289.61651519247533,463.74658203125,0.5094692
NbSnTi2,1.31,dft,jarvis_alex,,0.421109681558286,231.9487850237984,374.3765563964844,3.345908
HfNbRe2,0.007,dft,jarvis_alex,,0.2423560565433557,214.7435314507793,320.184326171875,2.8896866
CaCuSi,0.647,dft,jarvis_alex,,0.3744131524562657,226.6372431202468,415.7016296386719,0.9108778
LiMoN2,42.028,dft,jarvis_alex,,1.8604162547754937,255.55367904853503,634.894287109375,4.055733
Re2TiW,0.028,dft,jarvis_alex,,0.2644682210649272,239.2172699566666,369.7425231933594,1.7316957
CaRh4Sc,2.774,dft,jarvis_alex,,0.5378038038293045,169.6116155389755,329.0619812011719,6.9807286
TaTcV,0.0,dft,jarvis_alex,,0.2073030316340335,276.3020552249032,376.5045471191406,1.7957952
Ru3Ta,7.514,dft,jarvis_alex,,0.7068698729704723,203.86009654072728,400.1624755859375,5.8036013
LaRhSi3,0.842,dft,jarvis_alex,,0.382297409886227,258.3948213005094,398.0709533691406,1.6562023
HfInPd2,3.534,dft,jarvis_alex,,0.7848970749221019,74.69579148661519,213.7232208251953,2.6308491
CuRh2Ta,0.01,dft,jarvis_alex,,0.2513499587340889,167.2160605919274,324.2652282714844,1.9894687
Al2C2Nb2V2,0.067,dft,jarvis_alex,,0.2743092396514627,364.68857741055206,630.509033203125,4.899991
CoNiZn2,0.0,dft,jarvis_alex,,0.0961734854535393,203.4747883914771,399.621826171875,2.6789834
CaYZn2,0.293,dft,jarvis_alex,,0.3529013926445384,153.37356509278268,278.8575744628906,3.499267
GeLiPt2,0.132,dft,jarvis_alex,,0.323706584937214,135.25470779327418,287.5407409667969,0.7067043
Ag4Sc4Zn4,1.044,dft,jarvis_alex,,0.4391419791516157,149.12608299724823,287.7791748046875,6.474606
Al2GaZr,1.79,dft,jarvis_alex,,0.4466967577640374,235.72663617342576,449.1668395996094,1.6363391
Pt2TiV,1.001,dft,jarvis_alex,,0.4040893164294328,221.53892626063345,378.28515625,3.1895561
LiPtZn2,0.355,dft,jarvis_alex,,0.3759427932830887,120.79727907992569,232.6748504638672,1.3010229
B2Mn4,2.527,dft,jarvis_alex,,0.4323776251312992,390.5129032370771,759.4129638671875,5.20456
CdTiZr2,3.448,dft,jarvis_alex,,0.5776160932826387,164.85821267637652,270.3976135253906,2.765665
Ru6Ta2,12.395,dft,jarvis_alex,,1.5618113275621628,90.09384212254793,406.4969177246094,10.891411
AlNSc2Zr,0.052,dft,jarvis_alex,,0.2744797516667959,280.9833423058517,545.82080078125,2.1286209
InZr3,2.48,dft,jarvis_alex,,0.5219427722839306,169.19008853485445,309.5281066894531,3.863679
CdReTi2,0.394,dft,jarvis_alex,,0.3471571105116945,232.30516279822484,307.2931823730469,3.2936177
Al3Mg,1.217,dft,jarvis_alex,,0.4023393766740066,276.18247894027456,407.4393005371094,1.6486095
AlNb6Tc,3.092,dft,jarvis_alex,,0.5163043736449187,219.7978711513028,256.8192749023437,5.7234836
PdTi2W,1.145,dft,jarvis_alex,,0.4149623312867018,218.9908333614959,335.1897277832031,2.492391
Cr2GaH,1.912,dft,jarvis_alex,,0.4383227541167364,275.46097384919045,572.5531005859375,3.3191164
As2Hf2,0.453,dft,jarvis_alex,,0.3758446758089683,154.7541006336425,321.90753173828125,2.0135884
Al2Re2,0.0,dft,jarvis_alex,,0.1625023333919827,234.6505687138788,460.8941345214844,0.7947855
PtRh,0.804,dft,jarvis_alex,,0.3986576636651266,192.3017681545853,338.4314270019531,3.1573796
Al4CaSr,0.959,dft,jarvis_alex,,0.3931602910393374,248.69891191990345,411.7350769042969,4.1556425
LiNi4Sc,0.0,dft,jarvis_alex,,0.1955858265527424,242.7789019924068,415.1111755371094,5.991482
Fe2P2Sr,0.001,dft,jarvis_alex,,0.2166343555853446,284.1131849866812,425.1575012207031,2.4023921
H3LiPd,23.693,dft,jarvis_alex,,0.946816024074812,346.3540075700644,425.8772277832031,1.5919347
AlCrV6,8.306,dft,jarvis_alex,,0.6647182597656922,263.5671521040421,376.6070861816406,8.391451
MoNbOsV,0.233,dft,jarvis_alex,,0.3183575615650891,275.37027154067573,408.9176635742188,1.5841265
CH2Sc2,1.318,dft,jarvis_alex,,0.3607696213517199,590.2690968431077,632.47412109375,0.5438628
CuLiPtSi,1.372,dft,jarvis_alex,,0.4647731477229376,150.00787952251676,338.2230834960937,1.9288489
NiPSc,1.161,dft,jarvis_alex,,0.4173388591326248,215.20322135431977,479.9563903808594,1.5515916
AlHgZr2,0.852,dft,jarvis_alex,,0.4155289397481205,161.6925031061291,343.13787841796875,5.287346
Nb6Zn2,19.954,dft,jarvis_alex,,1.460551314223715,162.13863436092757,316.3977355957031,12.100397
Mo2NbRe,1.972,dft,jarvis_alex,,0.4536467336356712,241.8379235885061,389.4202575683594,0.91549283
CuRh6Ru,0.558,dft,jarvis_alex,,0.3604143025759266,251.9271208191101,445.2569885253906,9.502646
Co2RuV,1.61,dft,jarvis_alex,,0.4227226920694286,279.6078161631397,528.105224609375,4.0586276