formula,Tc,tc_source,dataset,pressure_gpa,lambda,wlog,debye_temp,dos_ef
HMoNiV2,2.231,dft,jarvis_alex,,0.4516314874802764,278.65193745427354,495.9608459472656,5.0893483
CaLaSi4,1.926,dft,jarvis_alex,,0.4562671076991987,229.2979380835299,337.9507751464844,1.9197773
Mo3Pt,8.025,dft,jarvis_alex,,0.7937605391169303,166.2323464723169,364.0537414550781,5.068576
GaHNb3,9.53,dft,jarvis_alex,,0.9577948281906156,136.44761988648597,417.4948425292969,2.6907098
IrReRu2,7.562,dft,jarvis_alex,,0.6897905803503006,218.40281091801512,454.8297424316406,3.637556
AlNbTi2,8.187,dft,jarvis_alex,,0.7481402004224407,193.51506237072724,466.8646545410156,4.972245
HIrMo2Tc,8.964,dft,jarvis_alex,,0.7390194034216643,217.13067040354915,438.9737243652344,3.843661
Ru2W2,8.463,dft,jarvis_alex,,0.8397327596056077,156.27996543814425,426.4878234863281,5.218344
HHfRu3,13.809,dft,jarvis_alex,,1.11074236164969,156.06133595515468,409.2684020996094,6.297195
Bi2In,6.058,dft,jarvis_alex,,1.3559562088261632,52.68276601620703,114.7588119506836,1.5721726
LuN2Ti,2.058,dft,jarvis_alex,,0.4119529728821452,409.1061692739423,634.8692626953125,1.6207522
La2Y2,6.875,dft,jarvis_alex,,0.9917610575669312,94.23866516560432,180.8513641357422,7.05486
IrRu2,5.734,dft,jarvis_alex,,0.6041779920068628,239.40667680153032,480.0724792480469,4.0069165
HNTa2,0.863,dft,jarvis_alex,,0.375824062092885,294.55544606517384,486.2381286621094,1.2961168
CrRhRu,19.512,dft,jarvis_alex,,1.2416701944082094,192.70286114618315,475.6997985839844,5.042863
Lu2YZr,3.14,dft,jarvis_alex,,0.6009205723755106,133.0260174403205,233.20016479492188,6.3223214
CMn3Mo,1.268,dft,jarvis_alex,,0.408042053465781,265.5854222371959,543.5792846679688,3.310661
InPb,5.32,dft,jarvis_alex,,1.2109416377757536,53.55619155250773,134.49815368652344,0.6801004
F5PdRb2,0.0,dft,jarvis_alex,,0.1783974370060602,199.0002911952837,213.78282165527344,1.4892477
MoOsRu2,7.872,dft,jarvis_alex,,0.6948696928234205,223.26208815139745,469.1258239746094,3.1980464
OsRuW2,8.019,dft,jarvis_alex,,0.8032761889232161,162.48866812901144,420.82806396484375,2.5934613
HfPdRuZr,5.018,dft,jarvis_alex,,0.742530359390321,120.5106601385364,276.0620422363281,3.7770016
SnTc2Ti,5.08,dft,jarvis_alex,,0.6353884049941041,182.4421271005676,356.5054016113281,6.4226885
LuN2Ta,15.648,dft,jarvis_alex,,1.1896239085253897,159.72453782536155,486.8248291015625,1.286163
PtTc2W,5.201,dft,jarvis_alex,,0.617439806111863,203.1310936079824,438.4435729980469,4.2306786
NiZr5,8.513,dft,jarvis_alex,,1.0110884577950685,111.9212096477046,256.5671081542969,6.5926137
NbReTcW,7.03,dft,jarvis_alex,,0.6721515852883216,216.939972965384,382.78704833984375,3.1622365
HfLiN4Nb2,7.791,dft,jarvis_alex,,0.5866998055476021,353.9712353698566,549.064453125,2.8266656
Mo2TcW,6.632,dft,jarvis_alex,,0.6385992228652697,235.2692047993404,407.2967224121094,3.2562666
Ta2V,12.61,dft,jarvis_alex,,0.9874293572623802,173.32909268677898,265.1973571777344,4.8090425
IrLuPdZr,2.627,dft,jarvis_alex,,0.6002866022242795,111.29395098112292,227.7372589111328,4.8605995
MoOs,11.568,dft,jarvis_alex,,0.89297909972161,190.84910658592136,434.8669738769531,2.0281951
LiOPtTi2,9.029,dft,jarvis_alex,,1.0425155292423514,112.25071784217796,372.9493713378906,4.247069
LuY2Zr,3.438,dft,jarvis_alex,,0.6074999274232817,140.95115453157837,245.8386993408203,5.9997387
Cr2HNiRu,11.308,dft,jarvis_alex,,0.8018311816806196,228.3178445025173,474.26361083984375,3.6679306
Mo2ReW,7.627,dft,jarvis_alex,,0.6968234818575064,214.40786953172187,399.5066223144531,2.6434896
PtRuTc2,1.108,dft,jarvis_alex,,0.401339698106706,255.3017566083172,474.7517395019531,3.1008353
NbTa2Ti,16.723,dft,jarvis_alex,,1.4815268590219812,131.62166060461448,269.2361755371094,6.637719
BiGaSn,8.551,dft,jarvis_alex,,1.7888000814144174,54.2651106055234,152.89828491210938,1.2630577
Mo2Re,12.556,dft,jarvis_alex,,0.8850221078568458,210.5109514641705,406.9124145507813,1.8522815
AuNb3,5.709,dft,jarvis_alex,,0.6924295329401365,162.53877367140643,295.0066223144531,3.697242
LuZr3,2.964,dft,jarvis_alex,,0.5602939314592643,157.13077635333815,265.5660095214844,3.786367
MoNbRe2,6.862,dft,jarvis_alex,,0.6738172220446561,210.22607655112373,363.6828918457031,3.2087681
Cr2NbW,0.004,dft,jarvis_alex,,0.2308552445889858,293.48706625172167,393.0162658691406,3.7100277
N3NbP,10.708,dft,jarvis_alex,,0.8427823848462815,194.4938104923164,683.0506591796875,0.9342781
Y2Zr2,10.988,dft,jarvis_alex,,1.132559164680454,123.09850823598548,263.7752990722656,6.128691
OsTiV2,2.738,dft,jarvis_alex,,0.4721255724979867,280.22027550432983,393.1818542480469,5.8371477
Mo3Tc,15.892,dft,jarvis_alex,,0.9891303393837462,219.96863580193192,427.76123046875,5.739297
NbOs2Ti,6.714,dft,jarvis_alex,,0.6915883566179093,191.9096834186636,377.45318603515625,2.6802857
Lu2Zr2,2.82,dft,jarvis_alex,,0.5758184701239115,136.5717182130509,242.1494903564453,6.242747
HfN2Zr,0.0,dft,jarvis_alex,,0.154775741108513,422.0083844452481,497.935302734375,0.1019033
Ti2Zr,15.963,dft,jarvis_alex,,1.3300055883611512,142.84747937326486,332.2020874023437,4.528733
N2Ti2,14.517,dft,jarvis_alex,,0.6453477984718976,498.0708565581704,611.7303466796875,2.1583676
HfOTi3,1.672,dft,jarvis_alex,,0.4363710960241292,246.61926605319863,397.5531311035156,4.094471
Be4IrNb,8.447,dft,jarvis_alex,,0.658224197854609,273.42971677468887,595.9429931640625,3.0915482
RbS2Zr,6.897,dft,jarvis_alex,,0.8576526841342217,121.30636764363474,284.75750732421875,2.3792913
ReRuTc2,14.238,dft,jarvis_alex,,0.9658011617260416,204.9073491677453,480.4391174316406,4.749611
Mn4Tc2,6.481,dft,jarvis_alex,,0.5953788304062194,282.3390918123214,470.4991760253906,4.1018467
HIrNb2Os,9.472,dft,jarvis_alex,,0.9229810308103928,144.76744751783792,372.5768432617188,4.496111
HfV4W,5.812,dft,jarvis_alex,,0.6462826872996003,198.3829991531356,272.088134765625,12.545816
GaNbZr2,9.537,dft,jarvis_alex,,0.9194949542224968,148.45206946375188,334.0183410644531,5.778346
Rh2Ti2,5.012,dft,jarvis_alex,,0.6319039362361832,182.508263155564,349.455810546875,4.8504705
CoTc3,9.472,dft,jarvis_alex,,0.7400374205312952,230.7396364353318,519.9874267578125,3.538018
HIrRuTc2,8.511,dft,jarvis_alex,,0.6832224065568328,249.9266097280826,471.9120788574219,3.531648
IrMoNb2,11.192,dft,jarvis_alex,,1.0804051339081844,132.83442189434138,368.4784851074219,3.5750642
ScTi2,6.103,dft,jarvis_alex,,0.661211611968831,196.3450875192545,389.3872985839844,4.3007617
Ta3V,11.96,dft,jarvis_alex,,1.0089506964063455,158.7958416021868,267.4934997558594,7.6348467
HIrMo2Os,6.124,dft,jarvis_alex,,0.6319276478859697,222.279114164347,415.63287353515625,2.808727
AuHHfTi2,6.398,dft,jarvis_alex,,0.7067902746993077,172.0830699307198,309.908935546875,5.5318403
AlHf2Nb,7.328,dft,jarvis_alex,,0.822165087776787,141.0086370861797,290.08721923828125,4.95806
MoRu2Sc,10.147,dft,jarvis_alex,,0.8361274453048891,189.93909211325283,418.8988952636719,4.28071
CoHMo2Re,5.037,dft,jarvis_alex,,0.5996977255903804,213.58509706246383,473.4049072265625,2.9280005
ScY,2.642,dft,jarvis_alex,,0.5426181057011473,156.4716853580952,273.4976501464844,3.3120599
LaSc2Y,4.585,dft,jarvis_alex,,0.7228682126716773,117.32700044573092,237.33302307128903,6.143923
Hf2TiZr,12.068,dft,jarvis_alex,,1.078700545767718,144.8352679675609,258.2990417480469,6.3139105
AuMn2Ti3,4.318,dft,jarvis_alex,,0.5724681609881721,212.59870602666464,382.154541015625,4.0966115
IrMo2Os,7.746,dft,jarvis_alex,,0.7144544993822194,204.976608161024,441.1007385253906,3.8849583
BeNbRh,14.07,dft,jarvis_alex,,1.0781909084193229,167.03766608458224,466.42474365234375,2.3570247
AgOZr3,6.196,dft,jarvis_alex,,0.7840379917752177,130.97440213568203,375.2555236816406,4.1328125
NbRhTcTi,6.002,dft,jarvis_alex,,0.6657241880626193,189.53534005426943,434.8376159667969,4.217492
Nb2PdRu,7.837,dft,jarvis_alex,,0.8004349662664676,159.53771430849213,386.32220458984375,3.046633
AuHMoNb2,6.108,dft,jarvis_alex,,0.6761125085938898,184.1542814725447,360.5793151855469,4.2271223
CdHNbZr2,5.352,dft,jarvis_alex,,0.6674579192089144,166.9792761678723,334.0679626464844,5.4263964
ReTa2Ti,7.115,dft,jarvis_alex,,0.7147474355828883,187.25693373399693,321.0526428222656,6.8731327
Mn2Os2,2.069,dft,jarvis_alex,,0.4410252247437467,289.98034663513164,469.9762878417969,4.5374074
HSnTa2Ti,5.886,dft,jarvis_alex,,0.7241109126687721,149.27930478428178,305.5470886230469,4.7770886
Hf3Zr,9.618,dft,jarvis_alex,,1.0158959597022104,126.87393757510648,229.9429168701172,5.738749
Mo2PtRu,8.068,dft,jarvis_alex,,0.7430265711189794,194.0744824693632,412.4082946777344,3.7635965
H2Nb2Tc,6.948,dft,jarvis_alex,,0.647222475580469,235.28419064463372,444.7598571777344,3.0872157
BeHfTi2,7.704,dft,jarvis_alex,,0.7427646059634928,184.68858178942827,424.72271728515625,3.9267802
Mo2TcW,12.436,dft,jarvis_alex,,0.8706722793704761,215.31088761116249,413.0185852050781,4.926878
LuSc2Y,3.015,dft,jarvis_alex,,0.5884493674735084,135.96348035271674,257.5478820800781,6.9318595
HMo2Ru,12.922,dft,jarvis_alex,,0.8612429639348126,225.13428191437384,487.1966247558594,3.162056
Nb2Tc2Zr2,0.229,dft,jarvis_alex,,0.3242957582462213,230.65953577078784,345.3465576171875,5.0591173
AuNNb3,9.653,dft,jarvis_alex,,0.8244699844477161,183.6085536884744,402.6009826660156,5.073684
TaTiV4,16.613,dft,jarvis_alex,,1.613907464539135,116.90965424803076,299.7569274902344,12.950942
Mo2ReW,7.803,dft,jarvis_alex,,0.7005396565587444,216.5326410732719,395.5257568359375,3.1207995
LiN4Nb2Zr,9.214,dft,jarvis_alex,,0.6236258514916733,347.7431304805069,652.07568359375,2.5462635
La3Sc,7.743,dft,jarvis_alex,,1.0464420352413946,97.37182912383138,168.15074157714844,5.412991
MnTa2Ti,2.951,dft,jarvis_alex,,0.5099673357691531,219.7467034693888,315.1907043457031,4.8700957
OsRuW2,8.187,dft,jarvis_alex,,0.8104170590161112,162.87275242745133,423.3472595214844,4.4647317
HfScZr2,11.31,dft,jarvis_alex,,1.052173284700493,141.0263995767773,279.0334777832031,5.7879276
NbV2W,7.08,dft,jarvis_alex,,0.6822814117355909,209.119410795662,355.1809997558594,5.9174523
OsRuTc2,3.164,dft,jarvis_alex,,0.4943997014411485,267.0232539686838,511.3795471191406,3.6843739
HMo2Re,13.059,dft,jarvis_alex,,1.0250530775096711,166.78885052773012,460.9091491699219,3.7688875
NiTi2Zr,6.986,dft,jarvis_alex,,0.8122511854849899,137.29962718792405,295.4029235839844,3.793108
IrTc2W,6.408,dft,jarvis_alex,,0.663355047122781,204.65158131208585,467.0702819824219,3.62175
Mo2Ti2,7.435,dft,jarvis_alex,,0.6696343932032888,231.19362094165663,454.2689208984375,5.0610886
AlV3,12.052,dft,jarvis_alex,,0.8112297904473195,239.1551207181232,509.4376525878906,5.3147407
ReTc3,11.906,dft,jarvis_alex,,0.8658004347794861,207.9959444681645,465.5031433105469,4.220859
IrRuW2,3.391,dft,jarvis_alex,,0.5495608185499439,192.24619982534765,422.0636901855469,3.4867003
PbSn,7.005,dft,jarvis_alex,,1.3649632256582602,60.73738527703172,125.1294937133789,0.97403395
CNNb2,9.148,dft,jarvis_alex,,0.6048898569960743,378.3707212153139,700.7625732421875,2.2639146
MoNbRhTa,6.767,dft,jarvis_alex,,0.7239299988522763,173.0397987335165,375.9166259765625,3.7281618
TcW3,8.608,dft,jarvis_alex,,0.7545883742734335,200.4861745083936,388.6420593261719,3.1841147
AgH4Pd2Pt,3.928,dft,jarvis_alex,,0.6157993838488341,153.87547764481965,274.7435302734375,1.6757976
HfMoV4,6.872,dft,jarvis_alex,,0.7107104010674211,182.9077822342304,271.4662780761719,12.35826
ReRu2Tc,3.244,dft,jarvis_alex,,0.5040870394179531,253.3588271236251,495.4923706054688,4.449521
MoNbRuW,13.574,dft,jarvis_alex,,1.0928518717120688,159.4584359876822,396.66900634765625,4.686885
IrMoTc2,8.464,dft,jarvis_alex,,0.7190748088222125,220.61574323874984,478.3749694824219,4.6851215
Re2RuTc,11.725,dft,jarvis_alex,,0.8781142985438505,199.7696044551268,454.2629089355469,4.4686475
HMo2ReRh,7.165,dft,jarvis_alex,,0.6920921288045352,203.3378279120409,433.4984436035156,2.880894
HPtRu3,3.607,dft,jarvis_alex,,0.5182702519699558,251.98299267885272,416.0875549316406,4.931826
MoRu2Tc,11.42,dft,jarvis_alex,,0.8292399349595351,217.52172205741337,492.6114196777344,5.591974
HLu3Sc,1.209,dft,jarvis_alex,,0.4569868622093451,142.87330745228033,285.7466125488281,4.99823
Mo2NbZr,5.603,dft,jarvis_alex,,0.6435638517235359,193.9767486755658,344.1842956542969,5.0358343
HLaSc2Y,1.572,dft,jarvis_alex,,0.4714888489714944,161.60620772466189,297.0060729980469,6.4146533
MoTi4,15.337,dft,jarvis_alex,,1.0950813529916257,179.46841212189628,466.2357177734375,9.038304
FeTi4,11.913,dft,jarvis_alex,,0.8624090479906582,209.06651831816737,493.9416198730469,6.573403
Mo2ReW,11.133,dft,jarvis_alex,,0.8437273338809821,204.60566805466928,380.40478515625,4.141221
Os2RuW,5.081,dft,jarvis_alex,,0.6125312576741229,203.3519476074068,440.5935363769531,3.3186262
AuH2Li2,19.996,dft,jarvis_alex,,0.8088411931218341,395.0671062614519,307.3694763183594,0.78008634
CdTaTi2,6.935,dft,jarvis_alex,,0.8054885477344049,138.72063563283072,271.20166015625,5.2193003
Ba2H5Pt,0.031,dft,jarvis_alex,,0.2628921427248566,290.97567496036123,241.21163940429688,2.0855222
N2NbSc,0.0,dft,jarvis_alex,,0.0400403136603954,563.8161202545056,740.87646484375,0.1682433
H2Ni2P2Sc2,0.819,dft,jarvis_alex,,0.3632942087657024,349.5833751917257,537.4310913085938,5.9445186
IrTc3,3.753,dft,jarvis_alex,,0.5185090268013783,262.8715213923347,487.940185546875,3.5237238
La2Y,8.994,dft,jarvis_alex,,1.3567005636004048,79.51472741880065,175.79559326171875,5.735777
Y,2.711,dft,jarvis_alex,,0.5700965151811734,135.76953449935417,234.0825653076172,1.7277409
BiPbTl,4.946,dft,jarvis_alex,,1.3661292113015595,42.47150235597762,109.7270278930664,1.2083322
HfReTi2,8.564,dft,jarvis_alex,,0.7739324900687792,187.4630543469804,293.7525329589844,4.4096026
CdHNbTi2,6.898,dft,jarvis_alex,,0.7312150140386131,171.03464742469873,351.4224548339844,5.1396346
MoRhTc2,7.343,dft,jarvis_alex,,0.6769504586053688,222.5193421609125,480.3486633300781,3.9522998
Re3Zr4,1.53,dft,jarvis_alex,,0.4625195173982885,171.46999093360037,268.571533203125,6.9535246
NiRu3Y2,2.555,dft,jarvis_alex,,0.5146950629739777,183.84254660667705,284.0895690917969,3.4138846
HfSc,5.911,dft,jarvis_alex,,0.7302807945836446,147.7297579960334,270.9408569335937,3.0972426
TaV2W,6.42,dft,jarvis_alex,,0.66440593727635,203.2532239483848,326.5044250488281,5.227932
PtTc2V,10.24,dft,jarvis_alex,,0.8452764599285006,186.74547783589625,440.2878112792969,2.4226732
Lu4,1.985,dft,jarvis_alex,,0.5700621186740045,99.368519248998,193.28990173339844,6.702997
YZr3,4.685,dft,jarvis_alex,,0.6662005521296235,147.74390784234427,263.3595275878906,5.267904
HMoRu2W,7.588,dft,jarvis_alex,,0.6939716655458704,213.99294016447115,457.4947814941406,3.8749807
Nb2ReZr,5.689,dft,jarvis_alex,,0.6402894411434968,199.9525175384144,318.8847961425781,4.463565
HMo2PtTa,6.864,dft,jarvis_alex,,0.7131303146434664,180.76800302230663,375.4237365722656,5.556279
AgZr5,6.551,dft,jarvis_alex,,0.7664785664328775,146.73618779056267,263.0242004394531,7.6134243
Os3Ta,7.706,dft,jarvis_alex,,0.7823079720598012,165.65146092742478,386.5912170410156,4.212761
Hf2Zr2,4.566,dft,jarvis_alex,,0.6695077452360791,141.97329594000868,245.98638916015625,2.8269093
MoTa2Zr,7.269,dft,jarvis_alex,,0.7701144888936161,160.95028861004087,318.5338439941406,5.6434727
ScTi2W,12.067,dft,jarvis_alex,,1.1586709635771884,128.56000041209353,361.083984375,6.2596703
LuOs4Y,9.135,dft,jarvis_alex,,0.9356149342494432,138.53662095890087,233.68499755859372,5.6232615
IrMoTc2,8.357,dft,jarvis_alex,,0.7192625502839666,217.63199022796417,475.6164245605469,4.025819
CNb2O,0.244,dft,jarvis_alex,,0.3125132844091647,339.9172905575108,558.9464111328125,2.387028
MgZr4,8.428,dft,jarvis_alex,,0.9074602599377318,134.33038724095442,297.6875305175781,6.603939
Mo2Ti2,9.399,dft,jarvis_alex,,0.7990050189779893,191.7203206090344,403.2824096679688,4.5131235
HfZr3,11.825,dft,jarvis_alex,,1.1207253454660244,134.00088299429004,249.6566162109375,6.602664
Hf2ScZr,10.251,dft,jarvis_alex,,1.0239284889553917,133.2429008469318,260.9346618652344,5.718641
Ru2Tc2,3.887,dft,jarvis_alex,,0.5192957958728336,270.7870639834492,537.1989135742188,4.3825974
LaLu3,4.83,dft,jarvis_alex,,0.8281369939013943,92.08900048339142,176.94142150878906,7.4277515
MoNbTaTi,11.677,dft,jarvis_alex,,0.9160574006906445,183.0102223040272,325.50299072265625,6.9905224
HgOTi2Zr,8.219,dft,jarvis_alex,,0.8498295351628417,146.924936244233,363.5192565917969,4.834472
ReTc3,15.028,dft,jarvis_alex,,1.014822269849634,199.18810675646407,459.7947692871094,4.969525
Be4IrTi,1.605,dft,jarvis_alex,,0.4037975546406558,356.2196390724177,656.9005737304688,2.7484436
Nb2TcZr,2.565,dft,jarvis_alex,,0.4983613103977736,209.4009963024803,353.5923156738281,3.8576245
La3Sc,8.622,dft,jarvis_alex,,1.193907993453877,89.40022996479256,161.4377899169922,6.4026327
ReTiV2,3.613,dft,jarvis_alex,,0.5083055236972858,272.7867174118497,418.7342834472656,5.0779843
Cu2Nb3,2.013,dft,jarvis_alex,,0.4892437997436695,176.853687399346,326.97772216796875,3.9769485
InNbZr2,8.49,dft,jarvis_alex,,0.8955353863294353,138.473088405407,265.69647216796875,4.59108
HLu3Y,0.94,dft,jarvis_alex,,0.4369046735780248,137.5520261716105,259.18414306640625,4.305173
Cr2TiW,0.927,dft,jarvis_alex,,0.3829199252303841,281.7747159119376,430.203125,5.0507784
HfNb2Ta,19.002,dft,jarvis_alex,,1.9524897653190751,113.77627308739088,253.8090362548828,7.554894
Mo2OsRu,10.755,dft,jarvis_alex,,0.8437797427969693,197.5665431295413,441.536865234375,5.227298
ScYZr,6.757,dft,jarvis_alex,,0.7801622521265161,145.70152795591562,280.2626037597656,3.536994
HHf3Pb,7.252,dft,jarvis_alex,,1.0517525155272478,88.8888490924323,279.7630310058594,6.2943077
Lu3Y,2.133,dft,jarvis_alex,,0.5589540991203289,113.98492263826198,195.29640197753903,6.024511
IrNbZr2,12.458,dft,jarvis_alex,,1.16750262922945,132.74521709987607,291.19610595703125,5.926598
IrMoRu2,5.398,dft,jarvis_alex,,0.600424159727849,229.57779992536004,462.0745849609375,3.5080202
AuH4K2,29.766,dft,jarvis_alex,,1.6843426224202562,198.96052614973053,209.4867401123047,2.2203257
La2LuSc,4.551,dft,jarvis_alex,,0.7752573985299971,99.30306417532115,180.55789184570312,5.441228
Hf2Zr,11.053,dft,jarvis_alex,,1.155977595343624,120.02602942758185,236.17991638183597,4.662643
CrNbTa2,5.077,dft,jarvis_alex,,0.6261816311536839,189.72591416628384,313.0240783691406,5.4466105
Hf2NbZn,7.333,dft,jarvis_alex,,0.8179382716052338,142.8670636380936,263.6789245605469,4.6281013
Nb2ReTi,3.815,dft,jarvis_alex,,0.5387741372095413,231.79269936301665,356.1927795410156,4.7780814
Ru3V,13.292,dft,jarvis_alex,,0.8916198549880934,220.1090709840108,484.3776245117188,4.661984
C4ScTaTi2,0.012,dft,jarvis_alex,,0.2390589945226343,444.2361973453993,634.2679443359375,2.4207907
AuHTiZr2,7.466,dft,jarvis_alex,,0.7866091709146904,156.66041666845527,331.7677917480469,5.5452127
ReZr3,8.957,dft,jarvis_alex,,0.8654639156226298,156.3057409068885,285.135986328125,4.05747
LaLuY2,4.589,dft,jarvis_alex,,0.7634999325585442,103.8255805004392,189.8212738037109,7.145996
H2MnNb2,4.412,dft,jarvis_alex,,0.54093223104196,262.9476703808007,488.2017517089844,3.1345315
NiPdTi2,5.796,dft,jarvis_alex,,0.6555144370406528,190.61954958773543,297.6783142089844,5.1157956
HLa2ScY,3.896,dft,jarvis_alex,,0.6499429749459126,130.55670287952842,259.4442749023437,5.572632
HfNb2Ta,15.942,dft,jarvis_alex,,1.4673004999369703,127.65405841380364,255.22218322753903,6.5531454
LuPdRhZr,3.999,dft,jarvis_alex,,0.6878821823963603,115.8386364032792,240.0793609619141,5.0169783
ReTaTi2,8.917,dft,jarvis_alex,,0.8460634338472461,161.4387418857327,310.263427734375,4.7465606
Nb2ReTi,8.611,dft,jarvis_alex,,0.760016823378235,196.3431970164429,360.2321472167969,6.7473683
MoTiVZn,2.442,dft,jarvis_alex,,0.4905855422740809,212.13312062646165,435.9739379882813,4.945622
Cr4Tc,12.028,dft,jarvis_alex,,0.7475416975709526,286.09076771469864,468.6734924316406,4.636394
HSnTiV2,8.115,dft,jarvis_alex,,0.853554678601554,143.83582196527937,409.8385314941406,5.676592
CuHfTi2,1.856,dft,jarvis_alex,,0.4833251199802441,171.44178833854843,302.38232421875,4.0165935
CuRuTi2,4.754,dft,jarvis_alex,,0.8537827203414063,84.13165198092442,421.2184753417969,4.612412
N2Re2,6.071,dft,jarvis_alex,,0.5467554589181447,348.65016172170584,508.5404968261719,2.2099295