formula,Tc,tc_source,dataset,pressure_gpa,lambda,wlog,debye_temp,dos_ef
PPdRh,0.256,dft,jarvis_alex,,0.3366466318187337,190.23368254784845,360.5229797363281,1.4428283
Mg2PdRh,0.0,dft,jarvis_alex,,0.1087190765238701,189.13835145303008,370.21917724609375,0.93267447
CuPtSc2,1.134,dft,jarvis_alex,,0.4683086426220275,119.94788765202088,285.097900390625,2.9433465
CInZr2,0.01,dft,jarvis_alex,,0.2475792369439607,210.3541227506338,433.0619201660156,1.2321242
Co2ZnZr,0.0,dft,jarvis_alex,,0.1181569033184763,217.035682179,393.67425537109375,0.56836706
Cd2MgSc,0.0,dft,jarvis_alex,,0.2083628528058181,155.69078095934842,221.4233856201172,1.9197848
Ca2In2N2,0.0,dft,jarvis_alex,,0.1962642679198772,169.265909471424,367.4202575683594,0.8240594
ReTa2,0.0,dft,jarvis_alex,,0.1628197177085937,215.3088997888806,316.7856750488281,1.243607
Ni3Sn,0.0,dft,jarvis_alex,,0.1086594939045212,209.0937169922228,399.617919921875,3.3481538
CRh2RuSc,2.975,dft,jarvis_alex,,0.6019931759489724,124.53161319002022,469.3703308105469,3.6641595
LiPd2Si,4.054,dft,jarvis_alex,,0.6552128893696954,132.89568450206258,337.7255554199219,1.4098588
CdLi2Rh,0.003,dft,jarvis_alex,,0.2368137093765873,148.29442392305725,257.7324523925781,1.2958647
MoNb6Pt,7.466,dft,jarvis_alex,,0.7059854056843937,203.1873726983226,372.4801940917969,8.425147
Cu2Si4Ti2,0.113,dft,jarvis_alex,,0.2890290402943364,339.2902790607149,594.9700927734375,5.768719
HfOsRhZr,1.817,dft,jarvis_alex,,0.4903146214747957,158.52040478220033,295.6980285644531,3.8673768
BN3Zr4,2.681,dft,jarvis_alex,,0.4320993162638999,415.0844968440659,622.2549438476562,2.931872
FeRe2Ti3,0.42,dft,jarvis_alex,,0.3480765507030222,242.8072953943077,394.7085266113281,3.9700592
ReRuTa2,7.583,dft,jarvis_alex,,0.7663569884600093,170.30442077674695,341.3172302246094,2.5720854
AlGaLiPd,0.118,dft,jarvis_alex,,0.305482780031615,202.0546806728009,331.03863525390625,0.7742384
AlRhRuZr,0.0,dft,jarvis_alex,,0.0545441553821808,257.3875785029472,396.1891784667969,0.52090806
AsRh5Ti,0.443,dft,jarvis_alex,,0.3545384745497111,224.24898250517649,415.6808776855469,5.026135
Cr4OsTa,22.093,dft,jarvis_alex,,1.460762813707733,176.54974091063943,392.3533630371094,11.176806
MgRh2Zr,0.0,dft,jarvis_alex,,0.119415990032759,208.9196243556079,362.6910400390625,0.78794307
CuMgSc2,0.806,dft,jarvis_alex,,0.4255921941615955,134.6518874351372,351.518798828125,3.2699192
TaW3,0.0,dft,jarvis_alex,,0.1983632969983782,212.36184294810585,362.1028137207031,1.2734163
Nb8W,10.24,dft,jarvis_alex,,0.8821446535848312,171.65207757052667,275.0546569824219,11.748003
Ge2Ti2V2,0.025,dft,jarvis_alex,,0.259290309988555,275.65185090511443,433.0475769042969,3.3299196
NO3Sc4,10.675,dft,jarvis_alex,,0.6423122436300468,371.6343081168864,695.6070556640625,2.3418255
Mo2V,0.061,dft,jarvis_alex,,0.2776279383019869,287.2566878392506,375.2572937011719,1.8823384
CdCu2HRh,0.0,dft,jarvis_alex,,0.1653396415468731,321.32029672241373,325.3795471191406,0.74393326
GaNi2Y,0.173,dft,jarvis_alex,,0.32780402887979,159.47137230376143,310.0389709472656,2.2324674
Ni2RuV,0.427,dft,jarvis_alex,,0.3447012938807928,265.7301692892509,471.80084228515625,4.7476172
AgBePd2,0.0,dft,jarvis_alex,,0.1639412751610927,207.9321816829546,307.19439697265625,1.8456728
H2Nb2,0.196,dft,jarvis_alex,,0.3075989588786235,315.9745648381528,517.9921875,1.0811356
CdHg2Y,0.262,dft,jarvis_alex,,0.3739558190520268,92.44712244963704,146.6780548095703,1.8681492
AlCTi3,0.242,dft,jarvis_alex,,0.3206288171261667,268.5860938210054,558.0699462890625,3.2409687
AlMgY2,0.001,dft,jarvis_alex,,0.218127137095777,177.74993291017134,337.7584533691406,2.7611005
TcTi2,11.2,dft,jarvis_alex,,0.830573772421576,211.7291687394623,422.6197814941406,4.5485353
Al2PtTc,0.0,dft,jarvis_alex,,0.1626358250065825,276.6885416162089,403.0274963378906,1.7515033
PSc2Sn,0.691,dft,jarvis_alex,,0.4515336998673198,86.25148348465603,429.970703125,1.6462681
B2Co2Lu,0.088,dft,jarvis_alex,,0.2839203003029971,320.92747968932497,549.7031860351562,1.9044639
MoVW2,0.002,dft,jarvis_alex,,0.2226971542342834,262.5125980179916,369.0821228027344,2.910268
CuNbPd,8.671,dft,jarvis_alex,,1.1450446670293453,93.85501536004853,336.04473876953125,3.1383374
AlTc2W,1.608,dft,jarvis_alex,,0.4421988320427213,222.36803841669567,443.0154724121094,3.4144685
Mn4W2,10.773,dft,jarvis_alex,,0.7595402344076339,246.17613363348468,449.8860778808594,8.146706
BeTi2Zn,0.206,dft,jarvis_alex,,0.3269599210512378,193.57351557550584,513.1470947265625,1.4264071
BLaRh3,0.0,dft,jarvis_alex,,0.2050741165608119,180.1425647615227,327.07818603515625,4.6802654
Ge2Mo2Si2,0.0,dft,jarvis_alex,,0.0998113775933348,296.2275002407849,562.675048828125,1.1928087
Rh2RuV,2.382,dft,jarvis_alex,,0.4719189787514213,244.5773006712269,480.1775817871094,3.0278416
Ca2H2Na,0.021,dft,jarvis_alex,,0.2572085599802929,258.99448184235763,341.8509826660156,4.2939625
Mo2RhRu,4.113,dft,jarvis_alex,,0.5551049044229005,225.28438204360785,447.5427551269531,3.8592114
Os2Rh2Ta2,0.089,dft,jarvis_alex,,0.3013430823433404,175.1288782122612,315.5836486816406,4.5232058
Os3Zn,0.512,dft,jarvis_alex,,0.3698479892480214,194.3929636814709,405.52288818359375,2.631969
Al6CaPd,0.063,dft,jarvis_alex,,0.2843779802987043,225.9268942424601,360.00262451171875,3.351109
Al2NbTi3,2.699,dft,jarvis_alex,,0.4946863992832813,226.8935185413748,500.7914733886719,7.449598
TcTi,2.483,dft,jarvis_alex,,0.4709065622568903,257.1101224038503,397.2419128417969,2.0426762
TaTc2W,5.557,dft,jarvis_alex,,0.6402091690208382,195.3276694354786,395.4517517089844,2.003893
GaNV2,0.852,dft,jarvis_alex,,0.3598287454378632,388.3859262254536,563.1209716796875,2.5923958
HHgTi3,1.814,dft,jarvis_alex,,0.4400431997240073,256.47285243430383,292.1468811035156,3.1693585
AlOs2V,0.056,dft,jarvis_alex,,0.2794898608487815,245.55220222513435,437.1995239257813,1.3845743
NbVW2,0.497,dft,jarvis_alex,,0.3600825627998339,225.52267008083888,352.1453552246094,3.0827985
AlSc2Tc,5.502,dft,jarvis_alex,,0.7213776465079217,140.98996555144208,384.8853454589844,4.189786
RhRuZr2,2.834,dft,jarvis_alex,,0.5422802812482448,168.23556757453747,328.5176086425781,2.715017
H6IrRhSr2,0.0,dft,jarvis_alex,,0.194852940285981,630.0014399843024,378.0975646972656,1.7246946
Ru3ScV2,7.431,dft,jarvis_alex,,0.7056607089255694,202.21664320296887,412.9186706542969,4.3403373
Sc3Zn2Zr,2.499,dft,jarvis_alex,,0.5268261164256816,164.4093330088692,349.6283874511719,6.995923
C6Na,24.711,dft,jarvis_alex,,0.6767793379879927,742.4686664094685,781.2846069335938,1.7945825
Al4MgNa,3.292,dft,jarvis_alex,,0.5097131377196387,245.6030531203388,455.6180114746094,1.4031922
CoH3Lu,0.785,dft,jarvis_alex,,0.3747241330176797,273.07167178009604,465.72796630859375,1.6879076
ScTi5,3.886,dft,jarvis_alex,,0.5455978089445539,225.68785579342853,379.2765502929688,6.0587025
Al2LiZn,0.659,dft,jarvis_alex,,0.3678118766145773,259.3772160685937,474.7671203613281,1.0171822
HOsRu2Ta,5.159,dft,jarvis_alex,,0.5905158889779505,229.4071991993796,395.0914001464844,5.0909915
CCdTi3,0.009,dft,jarvis_alex,,0.2420481443676021,273.25988791801706,458.6787414550781,4.107975
Al3Ti,0.274,dft,jarvis_alex,,0.3195616074732238,313.8828866864663,590.1145629882812,1.6828218
Al4CaNa,2.143,dft,jarvis_alex,,0.4526147357195563,265.5371851426959,437.3761291503906,1.844745
Co3HMo,0.97,dft,jarvis_alex,,0.3844051159580838,287.92083473051633,513.438232421875,3.5980263
HfMo2,0.224,dft,jarvis_alex,,0.3247357167847584,223.133392592313,342.98736572265625,1.6156509
Rh2TaTi,1.806,dft,jarvis_alex,,0.4747587741520975,180.257833111602,329.0811462402344,1.6241238
CuRhTi,0.05,dft,jarvis_alex,,0.2831344931477991,187.6619699495224,376.9311218261719,1.9173299
Cr2,1.624,dft,jarvis_alex,,0.406221838353561,349.4034729160825,594.6854248046875,1.3469869
HfReTaTc,0.018,dft,jarvis_alex,,0.2578428637247698,217.8028349787185,330.5613098144531,1.8586806
BeMoRh2,3.25,dft,jarvis_alex,,0.5344777529345752,202.8093825069789,465.8672180175781,2.547263
Li2NiSb,0.001,dft,jarvis_alex,,0.2170599608853508,216.03052149783832,331.219970703125,1.928348
MoReW2,7.134,dft,jarvis_alex,,0.7016695399639106,197.11910988754343,381.65234375,2.4841537
Al2TiV,0.822,dft,jarvis_alex,,0.3781693987022516,270.28689247394084,576.8880615234375,3.2830784
AlCuZr2,1.431,dft,jarvis_alex,,0.462503006344781,160.2825372749676,389.8952026367188,2.9326866
GaHf2N,0.184,dft,jarvis_alex,,0.3159968946748656,231.90113309445692,348.8535461425781,1.9629815
Os6Rh2,1.886,dft,jarvis_alex,,0.4557386142243636,226.4710555859992,423.87933349609375,4.8424673
CuHLiPd2,0.056,dft,jarvis_alex,,0.2720017170929654,337.7599395157098,331.5832824707031,1.2464663
HInLiNi2,0.0,dft,jarvis_alex,,0.2050185787766231,324.4864880380519,381.8882446289063,1.238165
CrCuRh2,6.197,dft,jarvis_alex,,0.6288226982596079,229.51683461367392,424.93365478515625,4.731567
HNi2Zn,0.0,dft,jarvis_alex,,0.191167838626514,378.80048743809897,442.6694641113281,2.7799826
CrOsV6,7.633,dft,jarvis_alex,,0.6451555292774664,262.6602015893381,495.1803894042969,10.001321
MoNi2Zn,0.028,dft,jarvis_alex,,0.2625979030087259,260.2365383130343,427.9547729492188,3.7039547
GaRh2Sc,0.0,dft,jarvis_alex,,0.1174491830948186,201.82284541040832,414.0353698730469,0.72702473
Rh2TiZn,0.0,dft,jarvis_alex,,0.1009617205514906,242.4346010481439,372.75494384765625,0.44866768
AlLi2Sn,1.18,dft,jarvis_alex,,0.4209927622353377,208.89980456478528,418.7594299316406,1.2778624
B4HfTa,1.101,dft,jarvis_alex,,0.3688293997267964,424.5511068638354,660.8287963867188,1.3767663
In2LiZr,0.143,dft,jarvis_alex,,0.3208426481403216,158.13001428722342,306.3154296875,3.0538106
Al5Cu2Zr,0.063,dft,jarvis_alex,,0.2825098965589122,244.69655367849407,487.7763977050781,1.8548104
LiOTlY2,0.0,dft,jarvis_alex,,0.192341256741251,206.4144783469519,316.458251953125,1.3597133
BRh2RuZr,0.027,dft,jarvis_alex,,0.2688272789205874,186.99698840350592,467.4097595214844,3.6259878
Mo2NbTa,0.219,dft,jarvis_alex,,0.3218649896717406,235.77015290696792,372.5083618164063,2.7528965
HInZr3,1.849,dft,jarvis_alex,,0.464636634318902,202.64582673874827,389.4687194824219,2.7993135
GeNi5P,0.001,dft,jarvis_alex,,0.2129927217261934,211.5232958524329,418.0330505371094,4.626797
InNb3,2.527,dft,jarvis_alex,,0.5258200483696889,167.39193970747388,264.9812927246094,2.0505044
HSnTi2Zr,7.202,dft,jarvis_alex,,0.7799352218023659,154.0485503789241,371.2908630371094,4.400722
Be2P2Rb,2.436,dft,jarvis_alex,,0.4464966054412568,320.9349127741893,577.8367309570312,2.4445186
PtRh6Tc,1.856,dft,jarvis_alex,,0.4479605707235148,241.5671492603247,444.2746276855469,6.596839
As2HfZr,0.0,dft,jarvis_alex,,0.1858240673013885,190.3243767679332,341.1389465332031,0.7886457
CCaSnY2,0.0,dft,jarvis_alex,,0.2025430257113602,237.26831203469817,380.6316528320313,0.8514268
Be2Nb2Rh2,9.882,dft,jarvis_alex,,0.8602862761563934,173.42943189584648,449.3522644042969,3.4068584
Al2CuRu,0.001,dft,jarvis_alex,,0.2111528403434546,250.9479541268742,484.9397888183594,1.069898
Cu2P2Y,0.022,dft,jarvis_alex,,0.2602911532491997,232.34878926719003,379.3568420410156,2.6818302
MoTcV2,0.133,dft,jarvis_alex,,0.2962527540596472,309.3486430369989,454.3149108886719,2.1911767
C2ScTa,0.002,dft,jarvis_alex,,0.2214407767187002,376.1719814752504,635.719970703125,0.8293448
Al2Ti4,2.838,dft,jarvis_alex,,0.4928735590564335,242.31917825305223,512.2852172851562,7.306661
AlRh2Sc,0.0,dft,jarvis_alex,,0.0978710139833109,259.57745049415433,448.5406188964844,1.3187213
Rh2ScSi2,0.062,dft,jarvis_alex,,0.281448574767476,250.9611677442844,486.547119140625,2.6266735
Nb2TiW,12.307,dft,jarvis_alex,,0.94599281151115,182.19935480144872,342.26666259765625,6.065564
AuLiMg2,0.018,dft,jarvis_alex,,0.2602581915524041,194.04203203373748,300.6600646972656,1.406736
As2Nb2Si2,0.007,dft,jarvis_alex,,0.238927890043066,251.1223456099304,512.763427734375,1.0303476
RhRu,3.799,dft,jarvis_alex,,0.541491205131057,226.77563533396824,484.8433532714844,2.3639498
Ta2TcV,0.176,dft,jarvis_alex,,0.3103416580816582,260.9605514987167,345.7505798339844,2.911386
PSnZr2,0.3,dft,jarvis_alex,,0.3573489149554008,143.24237477904674,368.7506103515625,1.7967507
CuSc2Zr,3.811,dft,jarvis_alex,,0.5898302868995948,170.76248140800342,349.77886962890625,5.113158
PtReTi2,1.276,dft,jarvis_alex,,0.4621493462985938,143.17645957485658,294.8150939941406,2.8428245
BeNbPt2,0.096,dft,jarvis_alex,,0.2982057952048914,208.24209136851047,353.1141662597656,1.8243
CHf2N,1.698,dft,jarvis_alex,,0.402668001294501,382.7336823027855,430.8495788574219,1.3841177
B2Ru3Y,6.846,dft,jarvis_alex,,0.7391386019305141,165.30764824866486,505.2036437988281,4.5502214
BeOsTc,0.163,dft,jarvis_alex,,0.3057815066830358,277.1696031240052,488.99609375,1.4383806
Cr2FeV3,0.974,dft,jarvis_alex,,0.3812566852037325,304.2865778830187,512.0860595703125,4.054356
BeOSc3,0.186,dft,jarvis_alex,,0.3242116974072578,187.7883359522565,536.8248291015625,2.1750383
CScTlY2,0.0,dft,jarvis_alex,,0.2050020543404105,184.13177839339832,351.06201171875,0.9855842
OSc2YZn,0.531,dft,jarvis_alex,,0.3844194699373343,157.22398191820545,436.5377197265625,2.326773
Hf2OsRu,0.0,dft,jarvis_alex,,0.1048426080335658,223.99365731109432,338.03204345703125,0.87174255
MoNb2Re,0.016,dft,jarvis_alex,,0.2530792136406888,252.99699430131463,378.6815490722656,2.0742881
NbTaTcW,0.007,dft,jarvis_alex,,0.2406606095930322,235.73331455150367,363.2307434082031,1.9519529
Rh2Ti2Y,1.005,dft,jarvis_alex,,0.4247277201615088,169.7864128830494,331.6982727050781,6.2451386
SnTcTi,7.346,dft,jarvis_alex,,0.7068140442204546,198.8365657575957,344.0787658691406,2.9304163
AlMnMo,0.01,dft,jarvis_alex,,0.2419425415512512,317.7429651922571,521.8888549804688,1.3200226
AlGaRu2,0.473,dft,jarvis_alex,,0.3640834754033999,199.1111321036672,447.93994140625,3.345807
CuH4Rh3,12.848,dft,jarvis_alex,,0.7811399621390239,273.7749127506035,379.7554321289063,4.833914
BHf3In,0.308,dft,jarvis_alex,,0.3587496642076478,143.27837949799584,353.5182189941406,2.7750058
MoNi3Zn2,0.016,dft,jarvis_alex,,0.253234603675788,252.5190444689499,412.3884887695313,5.071304
Cl2NZr2,0.964,dft,jarvis_alex,,0.3929948713457588,250.1681658580331,254.7086944580078,2.4159548
LuNiP,0.244,dft,jarvis_alex,,0.330671031341292,209.51081021895692,355.37615966796875,1.4079264
Hf2Tc2Ti2,8.436,dft,jarvis_alex,,0.7848482194920785,179.24072660448093,318.42437744140625,7.8393373
AlCZr2,0.314,dft,jarvis_alex,,0.3357616044609686,238.66470999323943,537.6453247070312,1.5677869
AlMnV,3.611,dft,jarvis_alex,,0.4998012442659476,291.3647076891452,565.1519775390625,2.9876113
LiSiTc2,0.482,dft,jarvis_alex,,0.3498035672083672,268.73082534560666,464.8470153808594,2.0264902
LiPd2Sb,2.112,dft,jarvis_alex,,0.5683946707780038,106.248760744425,213.8756866455078,1.7462928
AlZnZr,0.16,dft,jarvis_alex,,0.3233459759564333,165.15183718852288,425.3309326171875,1.1507728
AgBe4Cu,0.0,dft,jarvis_alex,,0.1808627220129673,429.5100627872495,589.470947265625,1.2785352
AlCo2Sc,0.0,dft,jarvis_alex,,0.0913513081599009,304.3460243170461,544.5987548828125,0.19236635
OsTc8,18.362,dft,jarvis_alex,,1.1338315017748843,206.6833338712323,493.4569396972656,11.855937
SSc2Se,0.0,dft,jarvis_alex,,0.1714395787987414,284.5331663378145,433.0538024902344,0.63667345
Os2RuSc3,1.712,dft,jarvis_alex,,0.4716964140235264,175.73084513771514,371.8760986328125,7.3582425
Al2Mg,4.347,dft,jarvis_alex,,0.5924763770811563,191.6418177656564,390.6095275878906,0.7747049
COTiZr,0.0,dft,jarvis_alex,,0.1853230378457731,415.2923975105035,666.1774291992188,0.75244033
MoOs5,1.312,dft,jarvis_alex,,0.4201878929333661,235.04413835489143,447.4388732910156,5.1183405
BeRhY,2.079,dft,jarvis_alex,,0.5105276883191703,153.61548174505427,384.1918029785156,1.6675036
AuSnTi2,0.258,dft,jarvis_alex,,0.3400288408578481,177.88655766975367,266.9503173828125,4.726367
NbRhRuZn,0.0,dft,jarvis_alex,,0.1141653902468291,224.247253311312,361.0232543945313,0.6903025
RuTc5,19.124,dft,jarvis_alex,,1.1749295367507369,204.99104627218563,517.7470703125,6.666424
AlBePd2,2.187,dft,jarvis_alex,,0.5222217765429544,148.26144738114198,410.8656921386719,1.5272753
S2SrY,0.066,dft,jarvis_alex,,0.286637585420261,216.71197608443697,348.960205078125,1.590954
AuCdLi2,0.604,dft,jarvis_alex,,0.4182686215687474,110.4374379020068,187.2527008056641,1.27036
Nb2PtRh,1.673,dft,jarvis_alex,,0.4492564585058294,214.7204741751773,377.4617004394531,3.641672
MgSc2Zn,0.124,dft,jarvis_alex,,0.3104603846826849,183.55141290023087,338.7814636230469,3.9663322
PdRhZn2,0.0,dft,jarvis_alex,,0.0831145932310851,185.9269989087284,348.7477111816406,0.96499795
MoO6Os,0.0,dft,jarvis_alex,,0.1974259102999394,539.8198429598514,537.2052001953125,3.0199487
Cu6NiRh,0.0,dft,jarvis_alex,,0.1459386982187861,199.197635184067,346.3944091796875,7.105725
AgIn2Sc,2.167,dft,jarvis_alex,,0.5748208015586379,105.13481260525796,252.40118408203125,2.5290072
CrTc2Ti,3.493,dft,jarvis_alex,,0.5098459725555924,260.7184346733387,463.8258056640625,2.6126964
NScTi2Zn,0.197,dft,jarvis_alex,,0.3201155900996075,221.82853104910168,488.4016418457031,3.1967437
CoH2,0.014,dft,jarvis_alex,,0.2433172177096074,406.4020078800999,581.7077026367188,1.5136003
Be2Tc4,3.386,dft,jarvis_alex,,0.4972933837687812,278.5141150235421,561.4384765625,4.4160304
TaZn3,0.0,dft,jarvis_alex,,0.1979215947742359,181.26491955705828,320.4152526855469,1.381275
Al2Cu,0.005,dft,jarvis_alex,,0.2323123962893485,327.10856326767697,446.2008056640625,1.0954764
LiNi2Zn,0.0,dft,jarvis_alex,,0.1283347190852125,197.21291903002663,365.6912231445313,1.0513994
MoRe2V,7.225,dft,jarvis_alex,,0.6626560722737398,231.135147924151,400.6798400878906,2.9450116
B4Li4,8.582,dft,jarvis_alex,,0.5881946103589035,385.8922482415895,876.7276611328125,2.1232686
CoFeVZn,0.0,dft,jarvis_alex,,0.1406635097959059,300.0224021086164,409.4054870605469,0.8746449
CuMnTi2,4.528,dft,jarvis_alex,,0.6015839119645097,190.38000179930376,407.7951354980469,3.6430385
NPdTi3,1.764,dft,jarvis_alex,,0.4900490122653306,153.56276465616224,409.1521911621094,2.7185955
Be5Rh,2.991,dft,jarvis_alex,,0.4327368843599228,459.56289200763314,847.5007934570312,1.7980382
Ni4Sc2Sn2,0.007,dft,jarvis_alex,,0.2448384986353836,191.5566393394668,356.64599609375,6.5530505
Lu2Si2Ti2,0.501,dft,jarvis_alex,,0.3585666239935015,234.017863207708,354.8470153808594,5.5509853
NaSe2Zr,3.092,dft,jarvis_alex,,0.6232182672592154,117.00782167096806,250.63194274902344,2.6971395
CuRhScZr,3.768,dft,jarvis_alex,,0.6293088621198607,138.77214070683075,279.6406555175781,3.007184
Rh3Sc2Sn,0.004,dft,jarvis_alex,,0.2371544108604217,155.94677733361502,348.6349182128906,3.8049006
Mo5VW2,0.172,dft,jarvis_alex,,0.3089383766994855,265.6767739122752,410.3866271972656,3.3401685
Mn4TcTi,15.965,dft,jarvis_alex,,0.9284264636890526,244.94878000541777,480.7386779785156,8.350867
BeV2Zn,0.07,dft,jarvis_alex,,0.2776790147290582,331.1613497399329,590.2120971679688,1.1881833
MnNiTi2,0.782,dft,jarvis_alex,,0.3817319100678863,242.32070269124085,377.4686584472656,3.4329472
InNiRhSc,0.063,dft,jarvis_alex,,0.2981983236117353,136.94745153874766,326.4026794433594,3.0189376
BeHf2Tc,0.754,dft,jarvis_alex,,0.3853404888599804,220.31810042878683,309.9317932128906,3.3205132
Al2CuOs,0.002,dft,jarvis_alex,,0.2267496093352098,231.5393691250564,430.9751892089844,1.2110095
FeGeMnV,0.007,dft,jarvis_alex,,0.2359881526357824,314.90949274983655,473.180419921875,1.0451097
CrReTa2,0.0,dft,jarvis_alex,,0.199125428528719,238.7979206771562,349.25830078125,2.3929908
ScTc2W,0.422,dft,jarvis_alex,,0.3495127298199542,236.7122071133448,362.2454528808594,4.814848
Ga2LuSc,0.174,dft,jarvis_alex,,0.3316309215833753,146.0991629605279,279.6326599121094,1.7733291
AlNi2Ta,4.679,dft,jarvis_alex,,0.7351841055139408,114.80885906380804,325.0298156738281,3.0820944
NPtV2,1.507,dft,jarvis_alex,,0.4200078028043907,269.7686396033717,543.8878784179688,2.6027014
Mo4Ti2,1.102,dft,jarvis_alex,,0.3986894190474541,263.6122310552019,461.1246643066406,5.0978036
HNbSi,0.018,dft,jarvis_alex,,0.2489735251284305,361.862297979228,488.3443298339844,0.5514276
Ga2Li2Rh,1.128,dft,jarvis_alex,,0.4293176802266209,180.3533831240088,302.5208435058594,1.7627944
P2Ti2Zr2,0.159,dft,jarvis_alex,,0.3021834477311338,303.8814867086098,510.2189331054688,2.9998772