formula,Tc,tc_source,dataset,pressure_gpa,lambda,wlog,debye_temp,dos_ef
B2CaNiRu,0.0,dft,jarvis_alex,,0.1896849153327457,366.90725204506543,504.4327697753906,0.64871466
Hf2Re4,12.835,dft,jarvis_alex,,1.109105132924176,148.14467876326316,272.936767578125,7.75228
AlMn2Re,1.188,dft,jarvis_alex,,0.412737727846554,233.8218421889783,482.1604309082031,2.5622187
InMo2Ti3,6.398,dft,jarvis_alex,,0.6580621508392173,208.28439915535245,402.7555236816406,6.1503778
Al6LaRh,0.042,dft,jarvis_alex,,0.2771395525003393,199.7639044355642,366.1862182617188,3.511703
CrRe2V3,0.052,dft,jarvis_alex,,0.2722242799887557,308.15896118178426,453.9660949707031,3.100967
CTc3,3.898,dft,jarvis_alex,,0.5003563147483265,312.604148307898,593.8093872070312,3.0242066
BeCoNiSi,0.658,dft,jarvis_alex,,0.3796042267146403,210.85035959745127,606.616943359375,3.0711734
Cu2GaZn,0.0,dft,jarvis_alex,,0.2090652585701946,182.7251932195872,299.7907409667969,0.826971
NbPtRh2,0.011,dft,jarvis_alex,,0.2495332864276269,221.0198831358133,413.1343078613281,2.9865339
Ga2MgTc,0.587,dft,jarvis_alex,,0.3808826900923298,184.42761295502643,384.8942565917969,1.5234748
Al6Zr2,0.0,dft,jarvis_alex,,0.1715012659788319,317.3556818237654,569.7297973632812,2.0649335
NbTa2W,4.115,dft,jarvis_alex,,0.593459269273178,180.9332283302253,321.753662109375,4.677903
Al2Pd4Sc2,0.224,dft,jarvis_alex,,0.3314866672615814,188.7528866256933,322.8612365722656,6.5849257
GaMoTi2,1.763,dft,jarvis_alex,,0.4458958296199831,234.2901904702152,452.1096496582031,3.3976238
LiTiZn2,2.214,dft,jarvis_alex,,0.4871040175400906,198.06208204003303,296.3177795410156,3.0712695
NY2,0.344,dft,jarvis_alex,,0.3364677598219519,257.2315401511165,440.3041687011719,2.7030668
C2In2Ti4,0.0,dft,jarvis_alex,,0.1608858830428663,357.8668929418156,530.7987060546875,2.4833643
Rh2TcW,1.845,dft,jarvis_alex,,0.4540445155630894,225.28812552773408,461.8087158203125,3.8291392
HgMo2Ti3,7.08,dft,jarvis_alex,,0.6986900363198156,196.9475450533448,370.1335754394531,5.6725287
Al5HfNi,0.491,dft,jarvis_alex,,0.3569264559871087,236.8460341704156,402.1961059570313,2.1300452
GaLuRh2,0.0,dft,jarvis_alex,,0.140097135761139,158.3391737831595,315.5274963378906,1.1017725
Ni2ScSn,0.729,dft,jarvis_alex,,0.4115034060054419,145.90410333223775,346.4974670410156,3.3162785
AlMoTi2,1.884,dft,jarvis_alex,,0.4475606517034649,245.91149511183949,429.0083923339844,3.7692041
Al5Nb2Zr,0.604,dft,jarvis_alex,,0.3712604024136309,223.4742923685617,537.858154296875,3.9421408
Rh2TiZr,3.333,dft,jarvis_alex,,0.5756829770930548,161.28002132300912,322.9331359863281,3.5312426
CuOsScZr,0.228,dft,jarvis_alex,,0.3345288356143742,178.0439317787838,295.9720458984375,3.2365339
Nb2OsRe,6.552,dft,jarvis_alex,,0.687468543139609,190.3945239077277,365.6723937988281,3.4132257
GaOs2Ta,0.057,dft,jarvis_alex,,0.2859199512392597,192.55142071340524,350.2139892578125,0.890624
AlRuTcV,0.9,dft,jarvis_alex,,0.3856420534637831,262.2470918214596,508.8699645996094,2.3680847
Mo6Os2,19.419,dft,jarvis_alex,,1.6471872847783728,136.11566939954304,392.2611389160156,10.221901
AlLiPtRh,0.0,dft,jarvis_alex,,0.1190439336825318,224.05560370138213,367.9671936035156,1.8980094
OsPtW2,1.197,dft,jarvis_alex,,0.4312698137210528,187.5541590887661,375.0465393066406,1.930208
MgNi2Ti,0.35,dft,jarvis_alex,,0.3516825088784568,187.60936446185875,358.99871826171875,3.1873162
Cr2Re,15.177,dft,jarvis_alex,,0.900898674614914,246.1443721984387,416.2491760253906,3.3547502
CuInScZn,0.038,dft,jarvis_alex,,0.2816042427245134,152.01388109755442,307.9333190917969,2.0896828
AlZn2Zr3,1.828,dft,jarvis_alex,,0.4910843993494342,158.1052080654531,368.3728942871094,5.4836345
RuV3,0.114,dft,jarvis_alex,,0.2915096843560999,312.8757610607188,483.6072692871094,3.580965
CuMoPd6,0.004,dft,jarvis_alex,,0.2369948685216732,196.1529185431256,328.7438659667969,6.706074
HfMoOsTa,0.052,dft,jarvis_alex,,0.2806549262119811,214.200785840936,346.8307189941406,2.4489954
AlFeMnMo,0.004,dft,jarvis_alex,,0.2307627335711857,310.9032484182896,487.0736083984375,2.378818
Al3PdRu2,0.001,dft,jarvis_alex,,0.2198792571852431,250.8568878655666,466.4326171875,2.7424507
MnOsTaTi,0.0,dft,jarvis_alex,,0.1456911834649617,283.2737470678737,340.2494201660156,1.9763476
InScZr,0.128,dft,jarvis_alex,,0.3109665386715962,185.8951315553808,293.2551574707031,1.5477092
CdSc5,1.92,dft,jarvis_alex,,0.4790687032647484,184.493081253968,295.7391052246094,9.4835825
PRh2,0.0,dft,jarvis_alex,,0.177755721951711,234.60975687207795,422.6008605957031,1.0804863
Cr4HfNb,0.519,dft,jarvis_alex,,0.3502299307495969,287.0970442549896,365.9981994628906,2.9581795
Co2P,0.0,dft,jarvis_alex,,0.1623172120073988,326.0993251982528,524.3150024414062,1.7108506
CuPt2Sc,0.0,dft,jarvis_alex,,0.1734234927454436,164.34339363145176,305.9516296386719,1.2325015
Hf2RhRu,1.9,dft,jarvis_alex,,0.4964294621992365,157.57764958526204,288.0489196777344,3.5112357
O3Ti3,0.0,dft,jarvis_alex,,0.1693074901385793,468.7761712909651,705.6240234375,0.9754408
AlMnRe,0.035,dft,jarvis_alex,,0.2674128748153461,261.8252518500649,468.8787536621094,2.068867
TcV2W,0.042,dft,jarvis_alex,,0.2688777557336586,291.51593070346183,437.85394287109375,3.0097864
B4OsW,0.242,dft,jarvis_alex,,0.3070748145041596,395.37647266432697,637.7210693359375,1.6768602
HgO2Y2,1.237,dft,jarvis_alex,,0.4343854724713738,186.18950914728467,300.6221923828125,1.5256734
SnTiZn2,0.0,dft,jarvis_alex,,0.2064431972149129,220.19251113391056,356.76318359375,0.8880844
HgLi2Pd,0.249,dft,jarvis_alex,,0.3660355148638927,101.0181683902275,166.78453063964844,1.3314679
MoNb2,2.429,dft,jarvis_alex,,0.4862421050384888,219.2317344912652,304.9613952636719,3.2460706
Mn2Nb3Ru,5.159,dft,jarvis_alex,,0.6072138820252753,211.32887020857635,378.8313293457031,3.0061376
AlCaLiY,0.121,dft,jarvis_alex,,0.3074524746484003,196.6718178096497,354.79620361328125,2.9533575
ReRhTi2,0.0,dft,jarvis_alex,,0.1438428537713259,279.5726695399949,416.3536071777344,0.87993973
Al4LaY,0.72,dft,jarvis_alex,,0.388972594599812,199.00054575488656,384.1387634277344,4.6976185
PdPt2Sc,0.003,dft,jarvis_alex,,0.2355341026133814,166.8312216565584,313.1630554199219,3.7457483
CRh3Sc,0.576,dft,jarvis_alex,,0.3835703090763323,172.93225264516323,446.400390625,0.21650054
NbTcTi2,11.478,dft,jarvis_alex,,0.9816192976347572,158.68238289059198,362.1130676269531,4.0116534
Cu3Ga,0.006,dft,jarvis_alex,,0.2412687015831787,191.08911271750057,324.8944091796875,1.2249643
CoGaRhSc,0.0,dft,jarvis_alex,,0.0931787865310279,249.12637027226896,418.7802429199219,0.9771049
HfMoPtTi,0.0,dft,jarvis_alex,,0.1822096609418538,225.43472578225143,321.1968078613281,1.1686025
NbOsRuSc,0.0,dft,jarvis_alex,,0.1222927266402319,261.06255243428734,389.3966979980469,1.993243
NiSbZr,1.346,dft,jarvis_alex,,0.450529606514666,170.3329982312543,344.8091125488281,2.3503838
LiS2Zr,6.21,dft,jarvis_alex,,0.7486690223868822,145.88366145455174,408.4690856933594,1.8546275
MoPt3,0.434,dft,jarvis_alex,,0.3625580906157933,188.108354892648,329.4294738769531,3.8242414
NbRuTcTi,0.0,dft,jarvis_alex,,0.1958467916607063,288.93234244014656,426.0550231933594,1.3686771
CuLiRhZn,0.001,dft,jarvis_alex,,0.2153599048236333,165.5937833651485,301.72686767578125,1.4963224
LiReRh2,0.858,dft,jarvis_alex,,0.4073446531654346,181.39995144464345,413.9952392578125,3.3326337
HfNaS2,5.845,dft,jarvis_alex,,0.9115143057757816,91.39801464497124,321.4993591308594,1.646911
S3Sc4Si,0.056,dft,jarvis_alex,,0.2750567999689308,292.7447487555817,521.9334716796875,3.1381583
Be2PtRh,0.0,dft,jarvis_alex,,0.1543454350231556,275.385904607369,457.9279479980469,1.0861784
BeCoRhTi,0.0,dft,jarvis_alex,,0.0934183225008733,287.90591909463984,505.8716125488281,0.9333955
NbRu2Ti,11.356,dft,jarvis_alex,,0.8778143415770224,193.2341413643444,381.9191589355469,2.955368
Ga2TiV,0.187,dft,jarvis_alex,,0.3146795235583445,244.7406484992516,459.50537109375,2.316156
CdH2Sc2,0.0,dft,jarvis_alex,,0.2044516157650721,268.6339414438339,405.0503845214844,1.5485864
AlCuRuSc,0.04,dft,jarvis_alex,,0.2740224218435599,219.08476636839745,403.6717834472656,2.7065294
Ca3InO,0.004,dft,jarvis_alex,,0.2344711239750876,198.71849290489624,319.23095703125,3.8400242
C2NbSc,0.025,dft,jarvis_alex,,0.2523033726170235,410.4433326147516,746.1214599609375,0.7729266
Ge2Te2Ti2,0.011,dft,jarvis_alex,,0.2488974503275972,217.0614626212361,316.0007019042969,0.0
RhRuScSi,0.0,dft,jarvis_alex,,0.0448284447383751,315.4203750591802,473.4246520996094,0.6598083
Fe2LiP2,0.021,dft,jarvis_alex,,0.2535449112748759,319.2422015321801,509.9322509765625,3.7072117
HInTiZr2,2.945,dft,jarvis_alex,,0.515615370770568,209.76295461893352,403.64556884765625,3.5861015
NiReTi2,0.296,dft,jarvis_alex,,0.3388179886514276,209.87477961468244,372.8707580566406,3.5365212
Al2LiPt,0.025,dft,jarvis_alex,,0.2596696069837772,269.5135560440974,363.2214965820313,1.0320926
OsTa2V,0.022,dft,jarvis_alex,,0.2591043012223302,250.0189070056261,327.4206848144531,1.9398893
Cr2RhV3,3.448,dft,jarvis_alex,,0.511161481971476,254.363045356959,487.3020324707031,4.110352
Nb2OsRe,7.058,dft,jarvis_alex,,0.7405936166597391,170.82778782236977,365.2195129394531,2.697211
Mo2PtRh,3.899,dft,jarvis_alex,,0.553775528824608,215.3838093331599,399.7140808105469,3.5687792
Os2TaTi,6.584,dft,jarvis_alex,,0.701166829260156,181.8400680974307,360.1476135253906,2.6812158
Hf2ReRu,0.014,dft,jarvis_alex,,0.2550895954848969,198.9245467998809,314.58843994140625,2.4999454
Mg2Sc2,0.061,dft,jarvis_alex,,0.2883419802666678,186.8367351419053,386.2521667480469,5.0897007
MoSnTi2,0.145,dft,jarvis_alex,,0.305790236656465,246.3218749945696,382.2574462890625,1.7008469
C2Ca2Fe2,0.071,dft,jarvis_alex,,0.274241731327264,384.7427039404988,451.5242004394531,3.8308418
O2Ti6,2.034,dft,jarvis_alex,,0.4459377496599796,269.8908940246646,501.33197021484375,5.9673295
NiPdZn2,0.0,dft,jarvis_alex,,0.1519220353210857,172.90033053694154,337.52752685546875,2.113708
Sc2Se2,0.124,dft,jarvis_alex,,0.3052765843382104,214.8987671063929,358.592529296875,2.7298245
Ni6Ta2,0.006,dft,jarvis_alex,,0.2398606621176505,224.70931394025487,392.3054809570313,5.039407
AlCa2Li,0.804,dft,jarvis_alex,,0.4491468561113213,102.87868688418318,335.4701232910156,3.1024795
Co2GaTc,1.44,dft,jarvis_alex,,0.4251959253103126,242.4900570059301,467.0931091308594,2.911368
MnTa,0.0,dft,jarvis_alex,,0.1625474946448026,287.51255929753086,334.5169982910156,0.57363254
GaRu3V2,7.215,dft,jarvis_alex,,0.6726232130639269,221.9082983527866,430.8642883300781,3.9828582
AlCa2Li,0.176,dft,jarvis_alex,,0.3226769284737276,184.833187817546,359.0749206542969,3.245506
Cu2H2Pt,0.057,dft,jarvis_alex,,0.260026989804385,614.3622913982608,328.2443542480469,0.74579155
Be2Mo4,4.312,dft,jarvis_alex,,0.5496366999758941,243.7509687689306,561.357666015625,2.532403
NbRh2Sn,5.068,dft,jarvis_alex,,0.8280986192066546,95.5609607596687,350.1698303222656,4.634907
Ca2Rh2Ti2,0.402,dft,jarvis_alex,,0.3755157142206832,138.14986614954785,303.3663635253906,7.3116245
C2Si2Ti4,0.043,dft,jarvis_alex,,0.2644793097806776,370.5023657959677,746.8429565429688,3.9525032
AlMgPt2,0.002,dft,jarvis_alex,,0.2316368915236807,143.2430991112516,321.4053649902344,0.83784324
GaSnZr6,7.861,dft,jarvis_alex,,0.8159634229296968,154.22248161310134,285.8143615722656,9.530572
LiRuSnZr,1.119,dft,jarvis_alex,,0.4207698584374412,198.77305435823908,359.5907287597656,4.665014
AuBe3,1.968,dft,jarvis_alex,,0.4287809971531435,316.5702852299545,504.3592834472656,0.75421894
PSY2,0.042,dft,jarvis_alex,,0.2732247701820967,241.2616786351065,398.0101013183594,1.4791323
AlBeTi,0.058,dft,jarvis_alex,,0.2754078880067057,298.0930066756319,650.4130859375,1.586417
PRh5Ti,0.322,dft,jarvis_alex,,0.3360063328676022,243.373704244476,437.7641906738281,4.3482566
CoNiV2,4.053,dft,jarvis_alex,,0.5334552157021821,255.12256972204943,520.8825073242188,5.3996634
H3LiNi,1.573,dft,jarvis_alex,,0.3525504911793462,827.7739515881334,563.3845825195312,1.5154471
Li2RhSb,1.496,dft,jarvis_alex,,0.4773711633489439,145.5394802430374,316.5310363769531,2.117326
CuInSc2,0.956,dft,jarvis_alex,,0.4856537061167487,86.37257775838273,318.6900329589844,3.4450612
AlCd2Zr,0.0,dft,jarvis_alex,,0.1932532505843432,192.6337588419712,296.4006652832031,1.8076245
HfRu2Zr,0.0,dft,jarvis_alex,,0.1553429162700619,238.538116911178,358.5879211425781,1.7513998
OsTcTiZr,0.132,dft,jarvis_alex,,0.3037469864462911,240.4468178154136,372.3129577636719,1.8694849
AlNi4Zr,2.321,dft,jarvis_alex,,0.5423564567286259,137.18852708621165,419.4831848144531,4.3211927
B2Co2Zr,0.071,dft,jarvis_alex,,0.2742298805091015,383.86477850165227,656.1239013671875,2.5730202
Zn3Zr5,3.188,dft,jarvis_alex,,0.6148490308431412,125.47231830918498,327.86492919921875,6.6661096
OsV3,0.091,dft,jarvis_alex,,0.2851707188776611,316.6873130944236,433.4735412597656,1.4568317
AlBeSc2,0.01,dft,jarvis_alex,,0.2425433400014286,301.841134964964,517.2113647460938,2.3173265
AuRh2Sc,0.31,dft,jarvis_alex,,0.3465329997972998,185.2057306666871,313.9326171875,5.921828
HfRuTcZr,0.011,dft,jarvis_alex,,0.2487018551289801,229.4444343010992,342.110107421875,2.0145788
Li5Si2,0.014,dft,jarvis_alex,,0.2477053179501216,298.47609275500736,603.5222778320312,1.2613775
HHfRh3,0.003,dft,jarvis_alex,,0.2275661450450641,268.667857839652,389.5438232421875,2.4158328
Be4ReSi,9.471,dft,jarvis_alex,,0.616523308119843,369.5501110755794,772.5860595703125,2.7970185
OsScZnZr,0.972,dft,jarvis_alex,,0.4260634451805817,161.70118119725976,283.4759521484375,2.3751109
N2ScTi,1.463,dft,jarvis_alex,,0.3766503233389631,493.2011030478355,820.38427734375,1.6169806
MoNb2Ti,13.346,dft,jarvis_alex,,0.9746113524613896,188.0058257038598,325.1778869628906,6.404703
CrGaTc,0.203,dft,jarvis_alex,,0.3110748261287538,294.8718755234347,436.916015625,1.1392558
LaOsSi3,0.713,dft,jarvis_alex,,0.374619231365939,248.55011934566588,371.9870300292969,2.0983834
HfZnZr2,4.436,dft,jarvis_alex,,0.6777254542558316,133.34227252393978,282.0535583496094,4.3511367
InNScY2,0.0,dft,jarvis_alex,,0.203049301494226,261.88908097699635,383.5946960449219,2.691431
InTi,0.007,dft,jarvis_alex,,0.2423637580232137,218.8222840058358,331.380126953125,1.7973614
Mg3Sc,0.0,dft,jarvis_alex,,0.2063424708694478,204.00115562104511,380.4025573730469,2.4686694
Ru2S2,0.015,dft,jarvis_alex,,0.2590574642363019,167.80180665153517,245.92025756835935,1.2380675
CaRh2Sn,0.0,dft,jarvis_alex,,0.1342837517978173,169.15397510661774,350.9059143066406,1.3966132
FeOsV6,2.407,dft,jarvis_alex,,0.4529037228992267,297.33558590444767,494.4960021972656,7.2481976
LiMg2Rh,0.0,dft,jarvis_alex,,0.2012847263647749,229.45521469700896,394.5263366699219,1.5764854
Al5Li,2.356,dft,jarvis_alex,,0.4563584402822179,280.7384924242448,568.3194580078125,1.8835896
Co2V6,2.21,dft,jarvis_alex,,0.4377917484382661,321.3752873133079,562.5615844726562,5.3287683
BeGeY,0.08,dft,jarvis_alex,,0.2830303792611462,302.51183537093647,414.9733581542969,1.2653089
Al4HfSc,0.0,dft,jarvis_alex,,0.1620265912024835,256.0210813214027,494.4344787597656,2.7857053
Cu4HfPd,0.028,dft,jarvis_alex,,0.2711690502578768,172.91445050788386,284.9019470214844,5.5215635
NiRhZn2,0.0,dft,jarvis_alex,,0.0876569095991069,180.7948851777151,348.6960754394531,1.2882078
Al5ScTi2,0.015,dft,jarvis_alex,,0.2484801003365891,303.458626691845,596.2589111328125,4.5680737
Ru2TaY,0.009,dft,jarvis_alex,,0.2463292365498545,200.8281476853467,318.3686218261719,2.0331688
InLiNiZn,0.006,dft,jarvis_alex,,0.2424670571596608,176.51884534311665,306.4264221191406,1.4618933
CoRhTiZn,0.0,dft,jarvis_alex,,0.1118575063394406,250.39464315565883,393.4560546875,0.52396506
Ni3Si2Y,0.974,dft,jarvis_alex,,0.4046839605013151,213.5742959945417,456.7566833496094,4.0701656
AlCuPdRh,0.0,dft,jarvis_alex,,0.1108004789268303,211.09421271316967,363.9948425292969,0.806653
Cr3V4,4.301,dft,jarvis_alex,,0.5550399306130039,234.6344385747305,421.3419494628906,7.742849
Be4Mo2,0.538,dft,jarvis_alex,,0.3373029251031021,394.5144548035445,739.4188842773438,3.4762645
CaNNi,0.0,dft,jarvis_alex,,0.0997548233924538,334.22268829343506,472.6474304199219,1.4328376
Re6Rh2,2.036,dft,jarvis_alex,,0.4687170214839805,215.38412430117785,419.3008728027344,7.9448733
CuHLiPd2,4.22,dft,jarvis_alex,,0.5069188652035532,320.5799678282296,336.9898376464844,1.6676066
HfRh3,0.444,dft,jarvis_alex,,0.3577803411791742,210.846718071304,394.9890441894531,3.761374
Cr2MoV3,1.926,dft,jarvis_alex,,0.4381569175978805,278.5560068582356,499.4563903808594,5.611606
Cr2HRu,12.865,dft,jarvis_alex,,0.7897546655655648,268.31169800789576,652.99951171875,3.8470297
InLiMgRh,0.005,dft,jarvis_alex,,0.2384241053015557,180.09683792503222,332.5782165527344,1.7819016
AlGaSc2,0.038,dft,jarvis_alex,,0.2771121046202456,183.899866479552,395.6081848144531,1.8819473
Rh3Ti2Zr,3.628,dft,jarvis_alex,,0.567449312486399,184.16196807466724,340.63787841796875,5.647723
As2C2Ti4,2.077,dft,jarvis_alex,,0.4234115536015242,356.8182844171428,618.8408203125,5.503699
Al2HfPd,0.015,dft,jarvis_alex,,0.2583128121640158,181.89088680952864,366.0325012207031,1.5821111
CGaHf2,0.581,dft,jarvis_alex,,0.391322367304461,154.5735945183257,388.8375549316406,1.3264652
AlY2Zn,0.12,dft,jarvis_alex,,0.3147400806744965,156.2608092224232,337.5946044921875,2.6117618
MoOs2Si,11.688,dft,jarvis_alex,,1.2462812709117967,112.49127145739848,407.82666015625,3.1016998
NbTaW,2.366,dft,jarvis_alex,,0.5053172012039765,182.62488618773176,329.9792785644531,3.2561724
CuNbNi6,0.0,dft,jarvis_alex,,0.1765180996628434,241.1424069463831,432.5935974121094,9.335547
BeCdPd2,0.0,dft,jarvis_alex,,0.176878810865574,215.07410102022453,345.4827880859375,0.5927159
CdOSc3,0.0,dft,jarvis_alex,,0.1828336331560317,305.1140005351192,444.2666931152344,2.4118614
Be2NiRu,1.245,dft,jarvis_alex,,0.4101179948171653,253.5342468487381,565.3722534179688,2.7621746
Cr4Tc2,21.192,dft,jarvis_alex,,1.1415326704769,234.52320957133435,450.218017578125,8.458911
Ni6TaTi,0.0,dft,jarvis_alex,,0.1939608878668801,248.19990898867167,445.8533020019531,4.165235
AlCuRh2,0.003,dft,jarvis_alex,,0.2307381614053572,189.37272687095745,373.6040954589844,4.25847
BeReRu,0.218,dft,jarvis_alex,,0.3182029397325235,258.58608505364106,487.9754638671875,1.3322649
CrRh,5.301,dft,jarvis_alex,,0.5735294737811965,260.3771410436922,494.8195190429688,1.6491195
LiRu2W,1.221,dft,jarvis_alex,,0.4238213942275319,208.8402497329208,371.9420471191406,3.2180076
GaHgZr2,0.849,dft,jarvis_alex,,0.4208900072943387,150.41581972837227,302.1180725097656,4.6386313
MoNb2Ru,0.423,dft,jarvis_alex,,0.3474191088886738,248.24061406385383,406.5271911621094,1.8370272
B2CCaNi2,0.002,dft,jarvis_alex,,0.217447574315276,381.3841377761728,544.7978515625,1.2241939
AuHTi3,7.479,dft,jarvis_alex,,0.7045375260441538,202.9618622001153,322.4632568359375,4.553354
CNb,13.68,dft,jarvis_alex,,0.7233906158537351,348.3598177459328,743.318359375,0.5841646
Tc2TiW,0.001,dft,jarvis_alex,,0.2093046014265736,279.6086990265248,444.2777404785156,0.881338
AlHfRu2,0.237,dft,jarvis_alex,,0.3293631743562482,209.79894038025583,363.1774597167969,4.1230216
HNbOsRu2,5.81,dft,jarvis_alex,,0.607345538760035,236.9806302639172,434.81341552734375,5.099016
Ti3Tl,1.152,dft,jarvis_alex,,0.4142280938877958,222.55708866876412,338.6441955566406,3.25552
AlOs2Si,0.756,dft,jarvis_alex,,0.3930396526066246,196.1913571823471,419.4736022949219,2.5246048
Mg2Ni2Si2,0.362,dft,jarvis_alex,,0.3436649507741132,230.0096149018782,500.1072692871094,3.2275677
Cu4NbRh,0.008,dft,jarvis_alex,,0.2446359393242611,200.97441346168023,344.5683898925781,2.121804
CMgSc2Y,0.383,dft,jarvis_alex,,0.3529240254512531,200.1815449001523,463.2898254394531,4.466901
H6IrMgRb2,3.703,dft,jarvis_alex,,0.582814512717037,171.94738788278858,246.11801147460935,3.135607
HNb3Sn,0.537,dft,jarvis_alex,,0.3692275065973822,205.588408875935,393.3490295410156,1.6822746
Be4NiZn,0.0,dft,jarvis_alex,,0.1622555406170777,430.9492825526778,779.2056274414062,1.4178509
Rh6RuZn,0.526,dft,jarvis_alex,,0.3581893794516633,248.057732582582,439.9225769042969,8.855048
LuRu2Sc,0.891,dft,jarvis_alex,,0.4116483518246302,178.08502150322482,333.4734191894531,4.0338125
CLiMgRh2,0.0,dft,jarvis_alex,,0.1581318557875233,330.91220440991526,434.7257995605469,0.94741523