formula,Tc,tc_source,dataset,pressure_gpa,lambda,wlog,debye_temp,dos_ef
AlFeTcW,0.0,dft,jarvis_alex,,0.1900642547396595,268.8311487477074,409.39752197265625,1.4476007
NiPSr,0.068,dft,jarvis_alex,,0.2847285231534954,238.907418837584,368.8200378417969,1.8097183
AuH2Y2,2.474,dft,jarvis_alex,,0.6266463264700534,92.13069827154412,310.1119689941406,2.52852
InNi4Zr,0.469,dft,jarvis_alex,,0.3708847758793193,174.6652943295166,371.0765380859375,5.1397634
GaPdTi2,2.86,dft,jarvis_alex,,0.5182069988267545,200.237749745354,351.5764465332031,4.565113
NbOsRuTi,8.249,dft,jarvis_alex,,0.741867792255953,199.25378076697783,372.6369934082031,3.3288074
GeTaTc2,0.002,dft,jarvis_alex,,0.2248599547604443,233.04078789854216,373.9833984375,2.6966681
OsRuTi2,0.0,dft,jarvis_alex,,0.1212181690956583,317.7346361627318,457.83111572265625,1.0126228
BLaLiRh2,0.02,dft,jarvis_alex,,0.2626422257663589,188.8607135126672,331.7253723144531,0.7510093
Rh2SbSc,2.26,dft,jarvis_alex,,0.521445795022506,154.72437265068277,338.8363037109375,1.9594756
SnTi6Tl,5.383,dft,jarvis_alex,,0.6304904893438736,197.22997159907567,335.6047668457031,6.5213227
HfOs2Sc,0.002,dft,jarvis_alex,,0.227323570208877,200.51055170802985,327.1173400878906,2.7843544
MgNi2Zn,0.0,dft,jarvis_alex,,0.159435163588151,170.52736440206343,394.8934020996094,2.7164927
MnPdTi2,1.867,dft,jarvis_alex,,0.4609601847529287,212.3217825977386,384.3233337402344,2.3254104
Ga2Ni4Zr2,5.37,dft,jarvis_alex,,0.8706745774175599,91.7586147162555,265.72314453125,6.289926
Al2AuOs,0.003,dft,jarvis_alex,,0.2310064431754327,174.23314846193162,347.3795166015625,0.90369844
HfTc2W,0.029,dft,jarvis_alex,,0.2662516772434018,224.70071550874457,358.55908203125,1.2978889
AuRh2Ti,0.016,dft,jarvis_alex,,0.2573106435539007,194.5891653710029,352.5590515136719,3.5896223
GeMgZn,0.443,dft,jarvis_alex,,0.3873447906410717,125.35938938780168,305.1929016113281,0.66354704
MoReV,0.966,dft,jarvis_alex,,0.3872397928834521,274.5040312746317,421.1947937011719,2.0113208
GaPdZr6,5.028,dft,jarvis_alex,,0.6794764825407325,150.45240917622849,290.05975341796875,11.5290785
CaCoSi3,0.871,dft,jarvis_alex,,0.3751748431855539,301.31837630115143,517.1435546875,2.2328868
LiRhRuV,2.097,dft,jarvis_alex,,0.4634370649585562,232.98151287346604,449.0007629394531,2.976983
LiRhRuW,0.0,dft,jarvis_alex,,0.1474232875856537,225.71894236060828,362.5608825683594,1.1498356
MgNiPtSc,0.018,dft,jarvis_alex,,0.2651988007225567,148.29638726781215,309.5277404785156,2.9550953
HRh2RuV,0.876,dft,jarvis_alex,,0.3906599840377209,235.7958668256714,472.0208129882813,2.1187391
Nb8Re,6.617,dft,jarvis_alex,,0.6926971369914549,188.1725377287588,304.08551025390625,10.685814
CaH3Rh,0.013,dft,jarvis_alex,,0.2324904703299082,811.6514954894535,480.1697387695313,0.94734013
Al3CaCu,0.04,dft,jarvis_alex,,0.2706381176044976,253.53703450345523,438.83001708984375,2.1253443
AgNTi3,0.207,dft,jarvis_alex,,0.3203920034110395,231.22922331671373,396.6863098144531,4.037825
Mo3V5,5.003,dft,jarvis_alex,,0.5872660327052894,226.883405712712,416.5013732910156,8.912071
PtRhV2,2.709,dft,jarvis_alex,,0.4942128425598726,228.6152620319419,409.7320861816406,3.4586494
AsRh2,0.0,dft,jarvis_alex,,0.1614735441437133,201.01503749303544,369.6077575683594,1.3230715
H2RhTi2,2.691,dft,jarvis_alex,,0.4963160777648741,222.33005997210947,401.64154052734375,5.2202377
Os2ScV,0.0,dft,jarvis_alex,,0.1393530422724223,268.339238726451,392.52386474609375,1.2145472
Mg3PdPt2,0.0,dft,jarvis_alex,,0.1378085790889524,164.13367342805313,294.817138671875,1.2625558
HPd3Tl,0.0,dft,jarvis_alex,,0.0879116222976423,219.13414016861745,199.0608062744141,0.2788521
GaMgRh2,0.0,dft,jarvis_alex,,0.1116388478271275,203.87549314475385,373.1130065917969,0.9920382
AlNSc3,0.0,dft,jarvis_alex,,0.1569651763029027,343.85531480427176,580.773681640625,2.8062832
O3Os,0.0,dft,jarvis_alex,,0.1740075216944576,546.4650068267267,539.0055541992188,1.4322304
NiZn2Zr,0.241,dft,jarvis_alex,,0.3525742749407324,126.61683467535129,307.6657409667969,2.4165487
AlBePtRu,0.0,dft,jarvis_alex,,0.1569123785256746,290.20508996800066,441.8373107910156,1.5036949
AuCV3,0.215,dft,jarvis_alex,,0.321170327116845,235.691856464746,402.5887145996094,3.3841305
Ga2Ge2Ni2,0.695,dft,jarvis_alex,,0.3945858884622182,176.33109024947137,358.1745300292969,2.3859165
HgRh2Sc,0.03,dft,jarvis_alex,,0.2736540032641456,165.2119178914586,304.6629943847656,3.5984516
Al5Ti3,0.245,dft,jarvis_alex,,0.323518005793252,251.8660514812061,617.4954223632812,5.8811336
NbTaTc2,0.0,dft,jarvis_alex,,0.2090520814713109,260.99403571476137,402.3853759765625,1.808023
CoNbOsZn,0.0,dft,jarvis_alex,,0.1400455376616075,210.78739026330388,356.3038024902344,0.9063369
Be2LiPt,6.361,dft,jarvis_alex,,0.6559161856593299,207.6514557175066,389.1763916015625,1.2129521
GaInZr6,4.535,dft,jarvis_alex,,0.6332005738410664,164.542111948436,299.0237121582031,5.4295406
Mo2VW,0.016,dft,jarvis_alex,,0.2508499257276358,280.6133673172324,404.3946838378906,1.7781209
Mo2Ru6,5.476,dft,jarvis_alex,,0.5831416963930575,255.1215536711692,502.6900329589844,10.910501
AlOs2Ta,0.0,dft,jarvis_alex,,0.0731773650038626,212.67378526821545,401.4740905761719,0.06395015
C2La,1.903,dft,jarvis_alex,,0.4469122281793577,249.3814270352676,338.6903686523437,1.4761679
Ca2N,0.0,dft,jarvis_alex,,0.100950125162464,303.5637977020795,304.0024108886719,1.294434
Al2AuNb,0.031,dft,jarvis_alex,,0.2713398189613226,191.7711796148138,345.2133483886719,1.5539044
Ru2VZn,3.024,dft,jarvis_alex,,0.52023070270174,208.83622494231776,401.4256896972656,4.1314373
AlMoV,0.661,dft,jarvis_alex,,0.3650664544491784,273.3132348948412,520.8848876953125,2.5366795
CuReTi2,0.418,dft,jarvis_alex,,0.3534181163093386,216.20284794862485,335.9449768066406,2.9077048
NbReRuTa,7.6,dft,jarvis_alex,,0.7270177849052497,192.7399245359697,355.4528503417969,3.357358
Ca2NNiPd,0.0,dft,jarvis_alex,,0.127057064524194,246.5640576572728,359.97186279296875,1.285327
PdRuY2,0.0,dft,jarvis_alex,,0.1199387340173173,158.8975538872999,271.2810974121094,1.7161587
AlMoV2,2.172,dft,jarvis_alex,,0.4597787544417233,250.15934825639897,507.95648193359375,3.902894
HNb2PtRu,3.623,dft,jarvis_alex,,0.532514193327074,228.53874982932945,378.8836669921875,2.9701273
GeLi5,1.898,dft,jarvis_alex,,0.4608249821510349,215.87892891374463,388.6636352539063,2.4957037
AlCuLi,0.034,dft,jarvis_alex,,0.2670799462058524,253.16408688023208,424.8177490234375,1.0379844
InMgNi2,0.001,dft,jarvis_alex,,0.2154481430460835,152.4268445051983,331.8770446777344,3.1547575
MoTcTi2,9.132,dft,jarvis_alex,,0.7589868432427977,208.97512523135373,415.26861572265625,5.2301025
RhRuW2,2.934,dft,jarvis_alex,,0.5312433384198493,187.5496434201843,403.8097534179688,3.1566176
Al2CdLi,1.527,dft,jarvis_alex,,0.4417568038839385,211.95724526375503,366.86273193359375,1.3631009
AlLiOY2,0.0,dft,jarvis_alex,,0.1866282531549309,253.4720397481551,443.1565246582031,1.1035292
PtTcTi2,3.116,dft,jarvis_alex,,0.701096281594308,85.44521151636596,364.9080200195313,2.2720408
GaLaSi,0.197,dft,jarvis_alex,,0.3322557445842046,162.4575614668162,335.8705139160156,0.53258526
Hf2MnRh,0.0,dft,jarvis_alex,,0.2048100673450019,220.85714833284385,279.6759338378906,1.6308737
Nb6OsRe,3.098,dft,jarvis_alex,,0.5196764786547946,214.930996373268,363.7717895507813,7.2188025
V3W,7.423,dft,jarvis_alex,,0.6609885799029314,238.59989577922096,329.180908203125,6.582224
GaNi2Zn,0.014,dft,jarvis_alex,,0.2562395080676907,177.4761336657496,384.6837463378906,2.000732
AlHgZr2,1.01,dft,jarvis_alex,,0.4345234841396871,152.08914449098413,322.193603515625,3.9316545
CdNTi3,0.15,dft,jarvis_alex,,0.3048968656023533,263.19266391010075,403.9337768554688,5.0337634
VW3,0.0,dft,jarvis_alex,,0.2095702755311442,247.76438314700653,372.8300476074219,1.3719114
Nb2TaTc,0.191,dft,jarvis_alex,,0.3182762204642443,226.24559213090973,338.9709167480469,1.9331156
CNi3Zn,16.333,dft,jarvis_alex,,3.273331479608267,56.52732171191832,418.1632385253906,4.439979
OsV2W,0.673,dft,jarvis_alex,,0.3642530892532858,282.75572289742985,429.0677490234375,2.920455
CdOTiZr2,3.597,dft,jarvis_alex,,0.5663034082989531,183.1976617199006,388.2061462402344,3.944944
AlCoRuSi,0.0,dft,jarvis_alex,,0.1646931559301779,261.4394124167348,571.6993408203125,1.6538019
MgNiZnZr,0.062,dft,jarvis_alex,,0.2941479485924243,154.4912261712353,339.8931884765625,3.2313247
CrMoW2,0.382,dft,jarvis_alex,,0.3407665399768634,259.32775982597315,383.2468872070313,2.2802966
CCdNi3,9.496,dft,jarvis_alex,,1.0518586841232636,116.48778932809236,398.9401550292969,7.9553804
ReRuTi2,0.133,dft,jarvis_alex,,0.3012254765505441,261.65986826961506,404.0001831054688,2.7219527
Hf2Nb2,13.223,dft,jarvis_alex,,1.3601474861314793,114.96014998794703,250.3223419189453,5.2795315
GaMo2V3,0.782,dft,jarvis_alex,,0.3776895803116214,259.2177464669399,458.1606140136719,4.1961904
H3Ti4,4.984,dft,jarvis_alex,,0.5941527909828309,217.1099564701312,520.5104370117188,5.9647975
PdTi,2.817,dft,jarvis_alex,,0.5161447024131924,200.31524665336732,346.1650390625,2.377622
Al5NiZr,0.553,dft,jarvis_alex,,0.3585247677342986,259.0569960815262,486.4342651367188,2.1763277
Al2VZn,0.0,dft,jarvis_alex,,0.1703391874301001,296.23947379612565,541.11083984375,2.2080688
Rh2TiZn,0.0,dft,jarvis_alex,,0.1716554992401263,222.5340832534433,363.6274719238281,1.6426648
LiMg3,0.004,dft,jarvis_alex,,0.2346639526982067,235.103915850975,420.3340148925781,1.1801108
FeSc3Zn2,0.638,dft,jarvis_alex,,0.3889597801270796,176.24929293790214,364.3116149902344,5.0290046
PtRh2Ru,1.936,dft,jarvis_alex,,0.4643809104710942,213.32098364878425,395.3824768066406,3.2507699
Rh7Sb,0.436,dft,jarvis_alex,,0.3511591735316626,236.6037236776483,379.35150146484375,8.369463
Al2Ni3Ta,0.782,dft,jarvis_alex,,0.3980597850651083,188.5334148694213,447.3040161132813,5.199481
AlNbNi2,0.41,dft,jarvis_alex,,0.350408117096482,225.78659240444944,473.5041809082031,1.6993903
AgAl2Ti,0.0,dft,jarvis_alex,,0.196160144634878,254.2468658186319,381.7059020996094,2.0646086
CdHfRh2,0.0,dft,jarvis_alex,,0.1294354682963296,168.93774225943687,283.06640625,0.9243709
C2Cr2La,12.092,dft,jarvis_alex,,0.9000941148006776,193.4504567169472,497.3238525390625,4.182798
AlMgPd2,0.063,dft,jarvis_alex,,0.293551695209978,161.13259064925623,320.4426574707031,0.6539058
AgSc2Tl,0.159,dft,jarvis_alex,,0.3431458976275806,101.971706036183,236.0159454345703,3.992302
CuRh2Sc,0.962,dft,jarvis_alex,,0.4171617275207323,178.93441363713802,372.5725402832031,5.2768736
MgRh2Tl,0.0,dft,jarvis_alex,,0.1027098343267346,161.58832961279188,294.5674133300781,1.8165604
AuBe4Pd,0.997,dft,jarvis_alex,,0.4022146031385947,226.09691237658467,536.1316528320312,2.4272845
OsTa2V,0.004,dft,jarvis_alex,,0.2316248676461393,254.5872898337844,323.3487243652344,1.9899322
CISc2,0.024,dft,jarvis_alex,,0.2566848130747308,309.4498193060719,377.0966491699219,3.133507
Co2GaMo,0.059,dft,jarvis_alex,,0.2795895273485582,257.3516435081307,464.9313049316406,3.021033
Cu2Ga,0.0,dft,jarvis_alex,,0.2125351341989453,183.82329698549768,301.518310546875,0.83857393
Ca2H5Ni,1.04,dft,jarvis_alex,,0.3435708096309317,661.4468893217174,484.7220764160156,2.423125
MoTaVW,0.273,dft,jarvis_alex,,0.3315207342734732,229.39625195587456,320.3672180175781,2.3092327
RhRuScZr,0.0,dft,jarvis_alex,,0.1691063701103457,222.24742539515665,346.2503967285156,1.1157643
HNZr6,3.165,dft,jarvis_alex,,0.5486222846644079,179.45006238759345,375.5241088867188,4.6993012
HNiRh2Sc,0.363,dft,jarvis_alex,,0.3382884479334142,259.6961768256012,421.0842590332031,5.720974
Nb4Si2,2.359,dft,jarvis_alex,,0.476946161287956,230.97905257522973,483.7698059082031,2.5211449
CCr2Rh2,3.008,dft,jarvis_alex,,0.4867372190740163,269.7884679341216,607.61572265625,6.7872596
ScYZn2,0.533,dft,jarvis_alex,,0.3836570312103278,160.06641425508286,306.139404296875,4.9143133
BeHf3Tc2,2.172,dft,jarvis_alex,,0.4830718289155727,201.0773949314173,303.6224670410156,6.7807803
Co2Sc2Si2,0.143,dft,jarvis_alex,,0.3011938816878693,282.50120804895795,528.1580810546875,3.6990917
O4Rh2,0.0,dft,jarvis_alex,,0.1782932968770853,498.7124698749619,554.3399658203125,5.047313
Mn4NbTc,12.919,dft,jarvis_alex,,0.8123389463350088,256.0028372555868,454.4996032714844,7.309967
Mo3Nb4,1.352,dft,jarvis_alex,,0.4305444679929339,213.3465638529094,295.0171813964844,4.9822288
NiRu2Ta,0.93,dft,jarvis_alex,,0.396101448227647,230.9674810502271,395.9330749511719,3.4688234
Al2CuTi,0.0,dft,jarvis_alex,,0.1982905935376838,268.2002916211685,490.1022033691406,2.3273082
Cr2VW,0.007,dft,jarvis_alex,,0.2358982624618838,317.68951401477045,419.7909240722656,3.0753536
BeMoRu2,0.035,dft,jarvis_alex,,0.2676420494633774,253.59830191399607,445.1294860839844,0.8369443
Cs2IrO6Sr,0.0,dft,jarvis_alex,,0.069426603843735,304.0469925812332,254.42770385742188,5.227987
V4W2,1.117,dft,jarvis_alex,,0.3993608200156672,264.27703126338554,324.5816345214844,2.939134
Ca2Ni2P2,0.065,dft,jarvis_alex,,0.2815982584192687,259.3807890660753,452.6750183105469,4.7331104
CCdHfTi2,0.052,dft,jarvis_alex,,0.2789431846114493,232.70304231450427,410.8412170410156,3.1975193
Li2Mg2,0.159,dft,jarvis_alex,,0.312939249867274,219.1371895627229,381.8331604003906,1.7358974
As2Co2Pd2,0.0,dft,jarvis_alex,,0.1467902111709894,169.91826529669595,322.9585876464844,0.8250745
Rh3V,0.471,dft,jarvis_alex,,0.35178954373661,252.5191297424496,512.1214599609375,3.0697653
ReTa2V,0.192,dft,jarvis_alex,,0.320220331091488,216.08742229434984,324.24755859375,2.7429523
CInTi2,0.0,dft,jarvis_alex,,0.1866063121362663,345.1765525997583,529.9441528320312,1.1886777
AlCuPdPt,0.155,dft,jarvis_alex,,0.3402940061435441,105.86605357944416,311.3933410644531,2.3094285
Al2PtTi,0.085,dft,jarvis_alex,,0.2975656406456948,189.73127104042868,397.6120300292969,2.0513935
InScZr2,1.646,dft,jarvis_alex,,0.4632488427476893,183.2996096620375,320.8239440917969,3.0096905
Ni5PZn,0.0,dft,jarvis_alex,,0.1623190564328926,239.86449576146083,416.1038818359375,5.829893
OsZnZr2,0.051,dft,jarvis_alex,,0.2843900894491276,184.2438635334817,326.0113830566406,1.2426953
Al5HfRu,0.13,dft,jarvis_alex,,0.3035577982716778,237.5101654713579,398.22259521484375,2.7816043
Nb3O3,3.601,dft,jarvis_alex,,0.4894043600827648,315.85137135269025,621.9234008789062,2.9128911
CLiRu2Sc,0.055,dft,jarvis_alex,,0.2778160154025416,254.5181896518017,514.845947265625,3.2870145
Al2MgSc,0.0,dft,jarvis_alex,,0.1858650777991552,297.9550469666303,505.671142578125,2.152876
AlRuTcW,0.0,dft,jarvis_alex,,0.2099033692882375,251.8326767556704,422.97467041015625,1.6202089
NiPZr,3.484,dft,jarvis_alex,,0.5448165051818057,203.1272552720621,465.9438171386719,2.061092
GeHV,0.01,dft,jarvis_alex,,0.2408600161205211,352.1502205914296,464.6518859863281,1.0695369
In2MoTi5,9.076,dft,jarvis_alex,,0.9065419457600662,144.0060835630515,356.4098815917969,10.471496
MoRh5,1.255,dft,jarvis_alex,,0.4128289503220924,247.15536135552563,460.8068542480469,7.62022
NbRe2W,5.174,dft,jarvis_alex,,0.6221857891624449,197.56853992664125,363.5328979492188,2.3520665
Rh2,2.177,dft,jarvis_alex,,0.4677869891659316,232.2300441915436,475.9832458496094,4.0336757
Nb2TaW3,0.204,dft,jarvis_alex,,0.3247276850427231,203.2396193614829,340.4372253417969,5.2064767
Hf2OsTc,0.016,dft,jarvis_alex,,0.2558822962548484,208.3725499820121,315.2780456542969,4.3453217
OsTa2Tc,4.831,dft,jarvis_alex,,0.6087338851920697,196.8061640883389,357.7182312011719,3.2151158
AlNi2Ti,1.882,dft,jarvis_alex,,0.4891561693726785,165.49742707568998,433.6486511230469,3.9020998
Be2PdRh,0.0,dft,jarvis_alex,,0.1957911021216936,307.74583519579187,472.6544799804688,0.5493243
Au2CdHg,0.13,dft,jarvis_alex,,0.3447943536313359,80.68498706534545,126.07137298583984,0.65290505
Pt6V2,1.53,dft,jarvis_alex,,0.4702440189585102,159.17902577979493,328.0022888183594,8.498463
Ni4Zn2,0.0,dft,jarvis_alex,,0.1630803061250789,175.45982785483082,355.42681884765625,5.1720724
AlCr2,1.2,dft,jarvis_alex,,0.3901508265069984,325.7339552211095,597.7982177734375,2.899983
H2Ni2Zn,0.006,dft,jarvis_alex,,0.2378026490626978,244.33189274946807,435.62701416015625,1.630675
CoHRu2V,1.951,dft,jarvis_alex,,0.4467943594506242,256.1700660509961,505.4944763183594,3.5446784
NbOsTaV,0.002,dft,jarvis_alex,,0.2252707796570026,244.9928887667101,337.6530456542969,3.600812
Rh2ZnZr,0.0,dft,jarvis_alex,,0.1205796582183025,190.3524568438926,336.9356689453125,0.5221405
Ru6Tc2,3.375,dft,jarvis_alex,,0.5007225579971508,270.7464176231415,542.9945068359375,4.179418
CTi2Zn,0.092,dft,jarvis_alex,,0.2905210064961165,260.3552481780218,580.8963012695312,2.330599
AuCMnSc2,0.702,dft,jarvis_alex,,0.3933150920270188,181.1514660169213,392.0045471191406,3.3240323
AsNiZn,0.596,dft,jarvis_alex,,0.388296051483437,166.41546650983702,312.3013610839844,1.4165987
Ag2GaLi,0.156,dft,jarvis_alex,,0.3268491698477682,147.28931894735211,243.8329620361328,1.173144
MnReTa2,0.0,dft,jarvis_alex,,0.185558241812461,254.45159491672192,320.8820495605469,1.1662431
Ga2Tc2,0.022,dft,jarvis_alex,,0.2597175620667515,239.3382593809704,395.032470703125,1.334055
ScSe,7.462,dft,jarvis_alex,,0.8149308356161249,146.16789386123156,349.8125305175781,1.5602485
LiRhScSn,0.193,dft,jarvis_alex,,0.322564817121858,203.9452131945656,333.2266540527344,3.7739923
LiSr2Tl,0.63,dft,jarvis_alex,,0.4431846885302135,85.90216921797666,212.46658325195312,2.7026322
MgPt2Ta,0.019,dft,jarvis_alex,,0.2628170067050975,172.75466049169654,294.8811950683594,0.9427825
BeFeTi2,0.011,dft,jarvis_alex,,0.2434126292711004,307.23002659401646,552.2091064453125,1.0967174
Cr4HfMo,8.098,dft,jarvis_alex,,0.6784517813216612,243.20345196509223,386.4154357910156,4.5090184
RhRu3,2.588,dft,jarvis_alex,,0.4783994121144341,250.52062301219075,504.5732421875,5.0687513
CuRuY2,0.008,dft,jarvis_alex,,0.2496020672940408,162.14083147831013,275.6277770996094,3.595596
LiMg2Ni,0.0,dft,jarvis_alex,,0.2040027996688591,217.0501974935985,407.7605285644531,2.0857873
Co2Ti3W,2.538,dft,jarvis_alex,,0.4951318702139298,212.53320963402004,423.5895385742188,4.5042315
Mo2NbW,0.016,dft,jarvis_alex,,0.2527848209465682,258.4652719705963,387.2780456542969,2.1372356
NiSc2Zn,1.424,dft,jarvis_alex,,0.4782382132049725,137.58361374454628,340.3970031738281,2.3804433
MoNbZn4,0.138,dft,jarvis_alex,,0.307775111866603,221.30310792912732,416.9994812011719,1.8390552
BCdRh2,0.587,dft,jarvis_alex,,0.3880287217725098,164.33246345092493,417.79388427734375,2.525603
HfN2Sc2,0.016,dft,jarvis_alex,,0.2468769607543255,354.11706155355773,549.11767578125,2.2693741
BeNi2V,0.048,dft,jarvis_alex,,0.2712580480333411,300.3965551949447,506.2463684082031,1.7045485
CoH6Mg2Ni,0.102,dft,jarvis_alex,,0.2684792741834034,722.6246284287334,575.1517333984375,0.71270484
CaCo2LiP2,0.039,dft,jarvis_alex,,0.2666288583852492,302.50673229720246,511.0102844238281,2.9433262
AgAl2Sc,0.08,dft,jarvis_alex,,0.2905783864752255,227.6023445204752,386.3221740722656,1.0613108
PSc2Tl,0.201,dft,jarvis_alex,,0.3465277460600728,120.07787964211232,301.1237487792969,2.4120302
NSc3Sn,0.456,dft,jarvis_alex,,0.3434431193475791,290.996281243529,500.6232604980469,3.1778586
Be4SiTc,7.425,dft,jarvis_alex,,0.5590065911943114,395.5190156457214,897.781494140625,2.1992064
AlLiOsW,0.0,dft,jarvis_alex,,0.1026366415549517,243.28279104691143,335.4131164550781,0.5165749
Nb2PtRu,7.676,dft,jarvis_alex,,0.7991975918658696,156.63508022586797,373.1603088378906,3.423381
OsRh5,0.896,dft,jarvis_alex,,0.3893146222958419,246.4915979322416,459.4412536621094,5.958787
Co2HRuV,0.118,dft,jarvis_alex,,0.2940181733846931,295.4041320353973,514.2042236328125,2.754978
InPtRuSc,0.0,dft,jarvis_alex,,0.0984274080338765,195.7932599871005,293.708251953125,0.725217
GeNbTc2,3.673,dft,jarvis_alex,,0.5594368216322552,195.76614336473995,389.4903564453125,3.079827
MgRu2Sb,0.0,dft,jarvis_alex,,0.1734195946579922,215.63175356504652,371.1768798828125,1.9009262
Be2Ca2P2,0.356,dft,jarvis_alex,,0.3228395281632791,372.8367076329087,625.858642578125,3.3231478
Al2NiOs,0.0,dft,jarvis_alex,,0.1563492893428901,207.2068669919885,429.2261962890625,1.9328218
RhTcTi2,0.0,dft,jarvis_alex,,0.1633063707768553,290.14189943961065,462.3764343261719,0.7569712
BSc3Sn,0.0,dft,jarvis_alex,,0.1652036608464016,329.63449999869914,481.0231018066406,0.36707345