formula,Tc,tc_source,dataset,pressure_gpa,lambda,wlog,debye_temp,dos_ef
NSc3Tl,0.0,dft,jarvis_alex,,0.1456810268365901,339.7354049305081,419.2469787597656,2.7686458
Tc2Ti3Zr,6.535,dft,jarvis_alex,,0.6515749705920421,218.78421872187144,374.0279846191406,6.211959
CN3Zr4,14.507,dft,jarvis_alex,,0.8462281991121952,261.8079565149451,623.9113159179688,1.7156163
B2Co3Mg,0.01,dft,jarvis_alex,,0.2433663864828994,292.6989301572525,634.019287109375,2.1993134
Be2Rh2V2,12.377,dft,jarvis_alex,,0.9972318593543636,166.12478855664236,483.4584655761719,3.847028
Pt2RhTc,0.92,dft,jarvis_alex,,0.3985342550868482,220.5239258383791,372.9514770507813,4.4329424
Nb5Tc,3.478,dft,jarvis_alex,,0.5380446604975726,212.24426522679235,282.5200500488281,5.9448767
IrNbTiV,0.655,dft,jarvis_alex,,0.3663598020301344,264.59356735114807,381.1921691894531,1.9242438
AlRu3Ti2,0.0,dft,jarvis_alex,,0.2017149405173122,277.60352405070734,478.0553894042969,3.4268415
ReTcV2,0.509,dft,jarvis_alex,,0.3460965577371389,307.1211646912555,430.7875671386719,1.7759961
CoSiV6,13.739,dft,jarvis_alex,,0.8170806998972466,269.2131900325839,547.8997192382812,10.901729
CrReTcTi,1.501,dft,jarvis_alex,,0.4167015802284589,281.00721916584604,416.0370178222656,3.0325196
CuLiRhSi,1.513,dft,jarvis_alex,,0.4601772774270013,173.14918642585735,408.6070861816406,1.5671533
BiLa,0.0,dft,jarvis_alex,,0.1197793344298834,137.89367714950438,179.86566162109375,0.38843825
CuPt2W,0.009,dft,jarvis_alex,,0.2484989363142699,187.991238332704,320.0210266113281,2.9938428
GeRh2Zn,0.725,dft,jarvis_alex,,0.4057819649689163,156.88867120628765,351.4412536621094,0.89085996
CLu3Si,0.183,dft,jarvis_alex,,0.3406121642995075,124.1746240179654,330.1425476074219,2.1894937
Cr4RhRu,6.13,dft,jarvis_alex,,0.5762329283767376,296.23909114912715,431.2253723144531,5.6060004
MoNb3,6.134,dft,jarvis_alex,,0.6937848959957765,173.4006502761143,267.19091796875,5.2469873
GaReTi2,0.0,dft,jarvis_alex,,0.2058056665904094,263.3120332300002,364.87103271484375,1.19872
BInNi3,3.273,dft,jarvis_alex,,0.613367055812309,129.50061829828564,426.4339294433594,3.2667367
NbOs2Pt,1.249,dft,jarvis_alex,,0.4312756299598988,195.61119575247525,382.1794738769531,3.1587129
OsRuTaTi,7.265,dft,jarvis_alex,,0.7031080612518815,199.55330295737767,354.88531494140625,3.4689546
H2Nb2Ru,13.112,dft,jarvis_alex,,1.3827345327439635,110.218477965292,451.4617004394531,3.7167141
AlOSr3,0.065,dft,jarvis_alex,,0.3045642090367642,114.71661769262413,293.4058532714844,5.1516967
Nb2ReRu,10.156,dft,jarvis_alex,,0.8904767166334181,167.85502600689583,364.2873229980469,2.888895
Al5FeHf,0.002,dft,jarvis_alex,,0.2238264591118847,273.7347649421093,434.840576171875,2.8334956
GaMgNiRu,0.0,dft,jarvis_alex,,0.1286094153858085,206.2379661060624,408.1877746582031,2.1596522
Si2Y2Zr2,2.258,dft,jarvis_alex,,0.4909079662298165,195.7505681574003,402.0743103027344,5.180933
OsRuScTa,0.0,dft,jarvis_alex,,0.097282160405478,248.70028181466893,377.1776428222656,1.0825832
B2Co2Lu2N2,0.0,dft,jarvis_alex,,0.1727343545427024,409.1471108370404,496.3644409179688,2.6238704
CuMg2Pd,0.007,dft,jarvis_alex,,0.2484248290240604,142.02278406331558,333.2161560058594,1.1169721
Cr2Ga,2.296,dft,jarvis_alex,,0.446938857302241,301.8726965937322,451.5309753417969,3.4739008
GaRh2W,0.227,dft,jarvis_alex,,0.3297464270654668,199.9568153132444,378.8945007324219,2.8283923
Rh2SnZn,0.047,dft,jarvis_alex,,0.2898033521930627,137.47977906790646,325.3678283691406,2.4510272
Nb2OsW,0.216,dft,jarvis_alex,,0.3218893726480427,231.79371612990795,358.7411193847656,2.084998
HMgRh3,0.488,dft,jarvis_alex,,0.3559388527929307,239.66460448774828,413.5061645507813,2.78489
LaNiSi2,0.041,dft,jarvis_alex,,0.2715149837585505,250.5799104920661,422.5218811035156,1.263174
MoNb2Tc,0.055,dft,jarvis_alex,,0.2766935846604549,267.5179181100736,392.5016479492188,2.45476
AlNb6Re,2.843,dft,jarvis_alex,,0.5031816216342095,223.35750723244053,289.49737548828125,5.333637
AlTcTi2,0.069,dft,jarvis_alex,,0.2832994410129001,256.00508329744275,431.4698791503906,1.210811
NbTa2W,4.368,dft,jarvis_alex,,0.6122047593993525,174.57690401528222,308.3926696777344,4.8858023
MoRhTi2,0.624,dft,jarvis_alex,,0.3640973094490723,262.7703117366912,445.1122741699219,4.2743707
Be4CoZn,0.019,dft,jarvis_alex,,0.2473203784062397,411.8331667253281,814.2470092773438,3.2753212
GaV6W,6.014,dft,jarvis_alex,,0.5990403871629056,256.9305302169794,418.84381103515625,7.3843827
Os6Tc2,2.67,dft,jarvis_alex,,0.4869543067817938,239.83222934840373,483.7005004882813,3.9115365
Al2LiZr,0.001,dft,jarvis_alex,,0.2181977533717216,271.6510932667012,486.9757385253906,1.4998387
Be4CrMo,0.274,dft,jarvis_alex,,0.3113281514953166,394.6168577519698,837.609375,1.5769509
H3LaPd,6.257,dft,jarvis_alex,,0.8193701139583618,120.84698191834016,308.24493408203125,1.4457313
GaRh2Sc,0.0,dft,jarvis_alex,,0.0808927567206727,242.432533332114,401.5481567382813,0.4517983
Mg3Pd2Pt,0.0,dft,jarvis_alex,,0.1332356602726437,178.22425075634305,306.1510314941406,1.3854388
LaPdSi3,0.675,dft,jarvis_alex,,0.3779807235867773,222.3472038201585,392.6952209472656,2.060373
Hf3NNb,0.616,dft,jarvis_alex,,0.4153637652045431,117.02099648819572,354.3070373535156,3.1145694
InMgRh2,0.0,dft,jarvis_alex,,0.0924100006041148,186.61013282760183,349.2757263183594,2.0824325
AlLi2Pd3,0.0,dft,jarvis_alex,,0.1260844454865732,231.7266039988625,319.12615966796875,1.4198264
Ge2Ti2Zr2,0.527,dft,jarvis_alex,,0.3603109075184278,238.3249214479522,411.5222473144531,5.7640476
Al5RuZr,0.04,dft,jarvis_alex,,0.269171110456527,272.19772350481475,466.416259765625,2.6095967
Ta2TcV,1.095,dft,jarvis_alex,,0.4083261054310195,228.67622584363923,343.9393005371094,4.463913
MoNiTi2,0.001,dft,jarvis_alex,,0.2146006719839155,284.9985321805943,455.24993896484375,1.784269
CGaScTi2,0.437,dft,jarvis_alex,,0.3575406377172394,208.08865306217024,552.40869140625,3.2354748
AlMoTi2,3.087,dft,jarvis_alex,,0.5109995145835133,228.13353493406905,484.6257629394531,3.4500942
AgH2Sc2,0.822,dft,jarvis_alex,,0.4203395411092537,146.55931076329438,398.3670349121094,2.1192873
CHf2Pb,0.045,dft,jarvis_alex,,0.2798620528991509,193.69553439746025,301.8364562988281,0.891104
Ni4ScSn,2.118,dft,jarvis_alex,,0.5331868148393298,133.13978364752415,360.3169860839844,5.3384247
HfRh2Sc,1.0,dft,jarvis_alex,,0.4266644463782658,165.2753868459686,307.61962890625,2.4548984
Be5Ti,0.168,dft,jarvis_alex,,0.2945441209638468,414.3741559925576,827.4144897460938,0.9755034
ReW3,6.146,dft,jarvis_alex,,0.6642991648511717,195.8282487816186,370.4212341308594,2.9587061
Ca3CdO,0.065,dft,jarvis_alex,,0.3001203650673405,131.6181694123374,296.05975341796875,2.9854894
BCo3Hf,0.0,dft,jarvis_alex,,0.1157884731069745,244.2119499680745,489.2910461425781,0.067737594
NiZn2,0.001,dft,jarvis_alex,,0.2193833136227056,192.4587554975876,369.0079650878906,1.422031
MoV2W,0.769,dft,jarvis_alex,,0.3769640485717651,257.97641976734815,418.7318420410156,2.9888704
ReTi2Zn,0.301,dft,jarvis_alex,,0.3334432861720084,242.0488961993166,340.5445861816406,3.766324
HfOsRhSc,0.0,dft,jarvis_alex,,0.11043389014251,217.84721656481065,311.8348999023437,1.2083803
H6IrNa2Rh,0.0,dft,jarvis_alex,,0.1444993360725854,932.940549684727,429.3968811035156,2.9022052
AgBaO2,0.801,dft,jarvis_alex,,0.3674034387473874,317.4544912175182,329.4991760253906,1.3164765
Be4FeV,0.29,dft,jarvis_alex,,0.3136151388418117,390.851464493548,917.1568603515624,2.9413147
Hf2RhTc,0.0,dft,jarvis_alex,,0.1473369758543047,213.18288065566665,337.4656066894531,1.6086439
Co2CrGa,3.396,dft,jarvis_alex,,0.5432943763729945,199.6997746081219,483.70208740234375,3.1945245
Ta2Tc,0.0,dft,jarvis_alex,,0.1775212442457239,226.69028765869243,349.7227783203125,1.4523213
CuLiMg2,0.025,dft,jarvis_alex,,0.2644030154205743,215.60636626360133,384.6273498535156,1.2111452
PtRhTa2,1.491,dft,jarvis_alex,,0.4616868175422404,168.57741577936494,318.8499755859375,3.3644876
RuTi2Zn,0.075,dft,jarvis_alex,,0.2874729453779525,237.5250070968198,430.13134765625,1.3337765
Cu2Si4Zr2,0.129,dft,jarvis_alex,,0.295877929457314,302.805452499645,518.2901611328125,3.1743286
Cu6GeIn,0.031,dft,jarvis_alex,,0.2754302178023067,161.94754908943608,312.3373107910156,2.4660306
AuBe2Ru,0.0,dft,jarvis_alex,,0.1875817230080399,304.1473864730992,399.6098937988281,1.3746285
HInPtRh2,0.724,dft,jarvis_alex,,0.3823948353932204,221.7208823216309,307.46685791015625,3.738685
InLi3,1.521,dft,jarvis_alex,,0.4656046607805169,164.94565893698334,242.7390594482422,2.0741823
AuRu2Sc3,0.0,dft,jarvis_alex,,0.1761867356635741,190.8372621587993,331.5793762207031,0.78625846
AlNb6V,7.627,dft,jarvis_alex,,0.7119163629309546,203.173476427556,223.1382293701172,10.06986
NiSnZn,0.032,dft,jarvis_alex,,0.2743170897937527,170.9907789762068,294.3873596191406,1.4224925
RhTi2W,1.109,dft,jarvis_alex,,0.4089370257217616,229.83531475695463,368.1624450683594,2.8718872
GeRuTcTi,0.103,dft,jarvis_alex,,0.2950594941085818,250.0536305017806,437.5226745605469,2.6248157
Co2GeTi,0.323,dft,jarvis_alex,,0.3396630234617508,224.7039658909882,475.2576904296875,2.4061422
Nb2TaW,4.264,dft,jarvis_alex,,0.5969187504358474,183.9857476930999,289.352294921875,4.3825445
NiOsZr2,2.471,dft,jarvis_alex,,0.5409417377334248,147.86593817909076,304.4208068847656,2.5302687
Al3CuY,0.0,dft,jarvis_alex,,0.2014118782462234,225.7514209486166,443.7850646972656,1.821973
RhTcZr2,0.0,dft,jarvis_alex,,0.2050902916923093,211.55358264620904,335.6960754394531,1.4452055
Mn4TaTc,11.597,dft,jarvis_alex,,0.7804145448692628,249.88651444791927,426.212890625,7.446942
Be2CuRu,0.005,dft,jarvis_alex,,0.2336805125167888,294.77226853668884,567.5159912109375,1.3183161
Mo2Ta,0.002,dft,jarvis_alex,,0.2239407579632289,252.22150022142964,387.2964172363281,0.9789979
Sc2ZnZr,3.586,dft,jarvis_alex,,0.584550512746927,165.26484803857582,344.37518310546875,4.5305567
Rh3Sb,0.008,dft,jarvis_alex,,0.2453305498263082,201.23303693090372,347.8288879394531,2.2690887
Al2Zn2,1.962,dft,jarvis_alex,,0.4805916473243367,185.5116660229374,370.15374755859375,0.60933286
OsTiV2,1.065,dft,jarvis_alex,,0.3930204906507664,276.7628346056389,397.6246643066406,4.777311
BeCoGeRh,0.007,dft,jarvis_alex,,0.2416643521049703,217.24217271642416,477.9491882324219,1.1528405
C3NZr4,0.147,dft,jarvis_alex,,0.2863747925798197,488.3151031881832,654.4952392578125,0.78804785
NbRu2Zr,11.142,dft,jarvis_alex,,0.9258047612181136,172.1413752784103,384.25006103515625,3.1408234
NbRhTi2,4.298,dft,jarvis_alex,,0.5841589442664975,198.49523651976423,377.3817138671875,5.0657234
CaRh2Ti,0.0,dft,jarvis_alex,,0.1828959101774515,205.95342305476908,344.1341857910156,1.874785
HRh,6.705,dft,jarvis_alex,,0.6311667032347897,243.90789537463792,415.1659240722656,2.3587785
NbSbTi2,2.06,dft,jarvis_alex,,0.4657977785880284,223.7364155746123,349.5510559082031,2.2656796
Au2CaY,0.284,dft,jarvis_alex,,0.3778855770869612,93.6816839059705,193.0498809814453,2.9059048
Os2V4,0.619,dft,jarvis_alex,,0.3554175214036056,307.9715985507098,431.9052429199219,4.1163793
HfN4Zr3,13.879,dft,jarvis_alex,,0.7212803264447889,356.43520178465945,523.301025390625,3.1030262
CdHTi3,1.267,dft,jarvis_alex,,0.4063057124931857,271.71334539222204,343.8709411621094,2.5365803
CNiPdY2,0.178,dft,jarvis_alex,,0.3316301667744812,149.29021893774822,349.8111877441406,2.8318446
Mo2OsPt,3.5,dft,jarvis_alex,,0.5407240620987392,210.03686996531343,394.7527160644531,2.9711874
CInSc2Ti,0.0,dft,jarvis_alex,,0.1864763282189379,284.2086609520648,525.137451171875,2.6595306
Mo2Tc2,16.448,dft,jarvis_alex,,1.1111880125066511,189.5548437942529,439.1667785644531,3.3422453
GaHTiV2,6.115,dft,jarvis_alex,,0.6499474605081665,204.99531430282107,469.0772399902344,4.2124076
BeRu2V,5.485,dft,jarvis_alex,,0.5901420975609247,245.27178827226228,491.5104064941406,2.909399
CGaSc2Zr,0.004,dft,jarvis_alex,,0.2328021592832422,248.45797620427595,542.1521606445312,2.0891314
AgLi2Pd,0.0,dft,jarvis_alex,,0.1846916789041611,142.66852756232078,212.0120086669922,1.1406776
Pd3Ti,0.0,dft,jarvis_alex,,0.106855218544386,222.37171566511367,403.6716613769531,1.6655787
MoTcV2,0.173,dft,jarvis_alex,,0.3051596023945342,300.38912971931325,453.6846008300781,2.7045321
Sc2Tc,3.46,dft,jarvis_alex,,0.5890193539754051,155.3883983970931,361.4114990234375,3.1359575
CCdTi2,0.173,dft,jarvis_alex,,0.3164466565311107,215.09361576578115,403.52484130859375,2.5752265
Hf2RuTc,0.008,dft,jarvis_alex,,0.2445098472473996,219.4238003349201,328.8850402832031,2.6800692
AlNbPt2,3.749,dft,jarvis_alex,,0.617044539641424,146.1953485143129,328.9426574707031,3.3073869
NbTi2Zn,6.423,dft,jarvis_alex,,0.6551518394762875,211.8692124572277,387.3607177734375,2.6871252
AlRu2Sc,3.451,dft,jarvis_alex,,0.5700383820273304,172.43668787539943,480.4861450195313,5.0190687
InRh2Zr,0.628,dft,jarvis_alex,,0.4140556009819021,121.31831133744149,331.2501525878906,4.6807494
SnTi2Zn,0.024,dft,jarvis_alex,,0.2626464906292211,223.7437339266245,377.4557189941406,3.6000886
Mg3,0.009,dft,jarvis_alex,,0.2428467697546551,254.2520151279407,378.3349914550781,1.0251784
N4ScZr3,15.585,dft,jarvis_alex,,0.805649342127135,311.8844271855216,640.9869384765625,2.018944
Mo2V2,0.663,dft,jarvis_alex,,0.3624811296015095,287.76060635615005,426.6716003417969,2.7324712
Ca2N,0.0,dft,jarvis_alex,,0.0945242532713452,320.09741516866615,304.58612060546875,0.8693154
GeLiRh2,0.0,dft,jarvis_alex,,0.1232031426598255,228.0978406919018,435.8033752441406,1.5135558
NbSnTi2,0.355,dft,jarvis_alex,,0.3454774496205974,217.20262015622376,344.9790344238281,3.3813314
BePtTi,5.763,dft,jarvis_alex,,0.6321767199589586,209.155277344331,381.9922790527344,2.0186322
HInNbTi2,4.233,dft,jarvis_alex,,0.5892210339106428,189.6733249064245,391.4027099609375,5.3667274
Co4Si4,0.0,dft,jarvis_alex,,0.1494179966415164,357.32026917712005,627.7484130859375,3.3028657
CaH3Pd,0.101,dft,jarvis_alex,,0.267540416853785,742.3929517228595,382.7120361328125,0.68505853
V,24.611,dft,jarvis_alex,,1.738014976182738,162.77914644420375,345.2579040527344,1.8655057
Cu2LiSi,0.005,dft,jarvis_alex,,0.2370377828116044,241.2438194323104,414.5080261230469,1.0211837
BaGe2Mg2,0.623,dft,jarvis_alex,,0.397270659742395,151.94325959156998,303.8021545410156,1.6862901
Ni3Sb,0.008,dft,jarvis_alex,,0.2464744120314239,192.3127381036545,321.5428771972656,3.5371401
LiScTl2,0.1,dft,jarvis_alex,,0.3183150311677011,117.76919520611338,156.34974670410156,0.68223965
RhRuTi2,4.314,dft,jarvis_alex,,0.5804169499879416,203.52172032803,456.0115966796875,4.071921
LiMg2Zn,0.001,dft,jarvis_alex,,0.2186142730663626,239.25229521463123,392.84088134765625,1.130045
CaScZn2,0.407,dft,jarvis_alex,,0.369633040925097,154.67267941426118,323.0408935546875,2.4757483
NiSSe,1.0,dft,jarvis_alex,,0.412814414231591,196.59718210937768,240.2471160888672,1.2331439
NPtTiV2,2.444,dft,jarvis_alex,,0.5241283432161037,163.42352134598062,453.2839660644531,3.7459338
Al5NiY,0.043,dft,jarvis_alex,,0.2711028663646395,269.56837975553486,491.0550231933594,2.7442908
LuRu2Sn,0.0,dft,jarvis_alex,,0.2030155495978891,178.95831737782075,319.32293701171875,2.2913187
CGaSc2Ti,0.126,dft,jarvis_alex,,0.3181783667477519,149.28116785978605,562.0660400390625,2.4159284
PdPt2W,0.086,dft,jarvis_alex,,0.2982894978396858,185.90439523885505,303.20574951171875,5.485614
CdOY3,0.038,dft,jarvis_alex,,0.2762876572022035,191.42369748032,344.9251403808594,2.0960174
NbRuTa2,0.144,dft,jarvis_alex,,0.3085398355572478,226.214444728821,324.9979248046875,2.011794
LiMgPtSi,1.005,dft,jarvis_alex,,0.4238473324321059,171.41397284243362,355.5962829589844,1.3071547
AuCTi2,0.856,dft,jarvis_alex,,0.4103935902265248,173.47430448266172,477.4338073730469,4.2467723
HgNY3,0.97,dft,jarvis_alex,,0.473171751547041,97.9267630168,323.3636169433594,1.7048548
Ca2H6NiPd,0.0,dft,jarvis_alex,,0.1909403948425382,786.7023004886834,432.5120544433594,1.3407811
OsTcZr2,0.032,dft,jarvis_alex,,0.2682518212247621,227.04871039263708,346.7467346191406,2.4197435
Nb2Tc3Ti,0.041,dft,jarvis_alex,,0.2696094013788281,272.3221784691335,412.5521545410156,3.8920596
Sc4,2.136,dft,jarvis_alex,,0.4867998385941122,191.97616546330195,312.1888122558594,8.418168
MgNbOs2,0.175,dft,jarvis_alex,,0.322100542886258,186.74990086606084,359.7098693847656,3.5047307
Ta3W,3.741,dft,jarvis_alex,,0.5942368975652762,163.85012164467787,298.1919860839844,4.941424
Be4RuTi,0.0,dft,jarvis_alex,,0.1578869436867355,398.9858315358037,748.2279052734375,-0.1529028
RhRu2Ta,2.958,dft,jarvis_alex,,0.5118648759245008,217.5304015522431,414.3832092285156,4.695067
Ni2P2Ti,0.927,dft,jarvis_alex,,0.3902244528933887,251.1798971155717,507.9370422363281,5.5438075
AlMn2,0.009,dft,jarvis_alex,,0.2384480610136619,351.1256565407698,588.5513305664062,2.7579668
MgNiSc2,1.891,dft,jarvis_alex,,0.5536245038695051,103.9134378385932,348.2614440917969,3.3739758
BeOs2V,4.617,dft,jarvis_alex,,0.5767295389193006,221.92814521516672,428.8374938964844,2.2030365
MoNbW2,0.004,dft,jarvis_alex,,0.2325758513295114,242.3329399823118,355.5709533691406,3.7288806
MoNbReW,0.196,dft,jarvis_alex,,0.3160247492188261,247.00409402554487,385.4373474121094,2.8729365
MnSiV6,3.901,dft,jarvis_alex,,0.4996846143283882,315.28438610509266,495.2533874511719,5.101558
Ge2Ti6,15.306,dft,jarvis_alex,,0.9844610890160308,212.475482158457,409.3481750488281,14.520311
MoRh2V,4.911,dft,jarvis_alex,,0.5861439532433371,224.78375010699247,484.6697692871094,4.240425
Al2BaLi,2.792,dft,jarvis_alex,,0.5968061527861925,120.07787538371991,344.52685546875,2.50466
CLaMo2Si2,2.551,dft,jarvis_alex,,0.4585849773035433,296.73252043481284,487.9822692871094,3.8744917
Os2Ta4,0.11,dft,jarvis_alex,,0.3030758562473842,204.75008858657367,316.4612731933594,3.9001992
LiNiZn2,0.106,dft,jarvis_alex,,0.3054498178432389,182.095850699735,345.4487609863281,1.6845168
AlCuLiPt,0.155,dft,jarvis_alex,,0.3281172148329395,141.38122380244306,337.90655517578125,1.4373462
LiP2RuTc,0.0,dft,jarvis_alex,,0.1977080621158221,282.2248361521302,438.7563171386719,1.362649
Mo2PtTc,4.149,dft,jarvis_alex,,0.5638394582059914,215.47377455002515,410.1759033203125,2.202475
InNi6Sb,0.0,dft,jarvis_alex,,0.1802544959585566,204.7488063293358,344.5931396484375,7.3105774
LaP2Y,0.0,dft,jarvis_alex,,0.1435350174276199,245.4713560100029,369.780029296875,0.7322728
CNbTa,0.132,dft,jarvis_alex,,0.3006731479846696,263.9677508258476,470.4094543457031,1.1766882
Al2LuY,0.294,dft,jarvis_alex,,0.3637239597638922,124.61686896265398,295.5686340332031,1.8679507
PSc2Te,0.0,dft,jarvis_alex,,0.2034340468611143,245.52847434569887,388.3853454589844,1.7962536
CMo,0.0,dft,jarvis_alex,,0.1884213146956785,510.17461284513854,790.4722900390625,0.6337946
PtRuTiZn,0.0,dft,jarvis_alex,,0.08523259214416,223.12510818843592,354.0917358398437,1.164733
Al2Ga2,6.741,dft,jarvis_alex,,0.7649311580674191,150.93177759161145,403.67877197265625,1.3403207
OsRhSc2,0.003,dft,jarvis_alex,,0.2303631976017873,219.6972210384019,358.3397521972656,1.9467931
MgOScY2,1.446,dft,jarvis_alex,,0.4523131899037088,179.18075461303468,414.857666015625,4.671562
InScZr6,2.48,dft,jarvis_alex,,0.5177020730116505,174.52470351061663,320.2528381347656,6.2612734
MoPtRu,11.45,dft,jarvis_alex,,0.955625217395508,166.7671151980903,405.353515625,2.8549547
Al5HfTi2,0.033,dft,jarvis_alex,,0.2637615063432702,290.869368910855,485.0611572265625,4.839314
AlCr6Si,0.824,dft,jarvis_alex,,0.3624550262919208,358.2028850720988,669.759033203125,6.1821423
MgPt2Zn,0.0,dft,jarvis_alex,,0.1337427151441038,157.62795517336383,288.1188049316406,1.0206116
CoRu2W,0.791,dft,jarvis_alex,,0.3802467299181498,251.4713607106952,462.9091796875,3.5836112
AlOsTcW,0.017,dft,jarvis_alex,,0.2563244505182892,227.09604124089824,390.0116882324219,2.2088294
GaLiPd2,0.0,dft,jarvis_alex,,0.1916358947658954,181.560307838946,310.85906982421875,1.0713022
NZr4,3.101,dft,jarvis_alex,,0.5812268604287626,144.95556223951442,438.737060546875,5.922832
Al2Mg,1.698,dft,jarvis_alex,,0.4303075632793086,268.9090627050674,436.5899353027344,0.9079959
Nb2Ta,12.799,dft,jarvis_alex,,1.0715793220047374,154.45595002615457,251.82882690429688,4.9724035
BiCScY2,3.998,dft,jarvis_alex,,0.667802255500224,124.3132520653024,340.3040466308594,3.6685138
HLiPt2Zn,6.762,dft,jarvis_alex,,0.7484518877266022,158.4714021469542,298.0087585449219,0.51302886