formula,Tc,tc_source,dataset,pressure_gpa,lambda,wlog,debye_temp,dos_ef
MoReTcTi,0.083,dft,jarvis_alex,,0.2857683512833742,280.7107022904587,414.9925842285156,1.9078852
Co2InTi,0.001,dft,jarvis_alex,,0.2191343827947342,190.564699187414,416.5561828613281,3.2440047
BeZr,0.192,dft,jarvis_alex,,0.323558800361625,197.49651832428447,470.3576965332031,0.6656851
AlHNiRh2,0.751,dft,jarvis_alex,,0.4029810227472921,168.42863772267353,426.6962585449219,3.9971256
MgNbPd2,0.218,dft,jarvis_alex,,0.3276991470881356,201.56983235806723,341.75732421875,1.1002623
BeRh2Si,0.039,dft,jarvis_alex,,0.2713933450837323,237.96606308753712,515.623046875,0.9609794
NiPtSi,0.0,dft,jarvis_alex,,0.194607144874805,196.855889724104,315.08013916015625,1.2130063
ReRuTa2,6.389,dft,jarvis_alex,,0.686209513353439,186.8563396082953,347.00811767578125,2.699657
Cr4TiW,7.258,dft,jarvis_alex,,0.6272362883223742,270.3577828847373,439.1541137695313,4.8385873
AlPt2Zn,0.026,dft,jarvis_alex,,0.2756564612603638,132.6274770212096,314.4368591308594,0.885258
In2TiZr,0.044,dft,jarvis_alex,,0.27996404397025,188.11664348486423,319.3897705078125,3.7260695
Mo3V,0.086,dft,jarvis_alex,,0.2860541074982696,290.04741757441343,438.6638793945313,2.0650737
NbPt2Rh,0.257,dft,jarvis_alex,,0.3358535048573897,195.2985295332771,363.1266174316406,1.8344862
AlScTcZr,0.778,dft,jarvis_alex,,0.3967732964988426,191.13945012831064,340.4085998535156,2.2698529
AlGa2Lu,0.55,dft,jarvis_alex,,0.3769817109517243,184.3254018118918,295.0037841796875,1.5629026
Al2PdPt,2.924,dft,jarvis_alex,,0.6012092391027534,123.00613710536588,294.3875732421875,1.3572869
CdInRh2,0.0,dft,jarvis_alex,,0.078304464453985,164.60606831361008,295.4198913574219,1.8767875
AlMg3,0.394,dft,jarvis_alex,,0.3464727706271104,235.87031157209955,417.7731628417969,1.5376132
MgSc2Zr,1.792,dft,jarvis_alex,,0.4746119506893724,179.21592403499957,321.6283264160156,4.4183006
AlCaNY2,0.001,dft,jarvis_alex,,0.215408879238064,194.9045832375366,419.3742370605469,1.4506305
GaNb6V,6.73,dft,jarvis_alex,,0.6694476011607153,209.65816838492827,318.9486694335937,9.579473
ReSiTc,1.844,dft,jarvis_alex,,0.4382520413895895,266.43641617814205,457.1740417480469,1.1913046
Co2Si2Zr2,0.016,dft,jarvis_alex,,0.2517638261462802,278.1567751616152,505.3658752441406,7.2944736
MgRuSn,0.0,dft,jarvis_alex,,0.171408946120938,189.45746624687555,341.1708068847656,0.5455445
BaCa2Sr,0.009,dft,jarvis_alex,,0.2657965845855933,73.17464274097817,148.5996551513672,6.94656
Mg2Rh,0.0,dft,jarvis_alex,,0.1560823500694572,199.05431896706327,373.4599304199219,1.3168344
PdReRh6,1.13,dft,jarvis_alex,,0.4090811816733978,233.9830541713747,414.5865783691406,6.625225
As2Sc2,0.0,dft,jarvis_alex,,0.1277705587773059,267.1996395932394,397.7752075195313,0.68313265
Al3Zn,1.315,dft,jarvis_alex,,0.4208739225530316,233.09131477195808,436.6447448730469,1.4177806
Ni5Ta,0.009,dft,jarvis_alex,,0.2491013949527142,185.9628203034428,404.3725280761719,7.977685
MgNiP,0.769,dft,jarvis_alex,,0.3874289870769013,217.53967843211709,466.3525695800781,1.4390117
HfLiS2,4.362,dft,jarvis_alex,,0.698087219415528,120.9879326863761,378.3148498535156,1.3612884
AuHLi2Rh,0.0,dft,jarvis_alex,,0.206514068100514,215.17320815852543,306.1246032714844,0.8064592
Ge2Ni2,1.267,dft,jarvis_alex,,0.4581017454985481,148.0844875854407,353.9614562988281,1.9772823
Ni2P2Sr,4.656,dft,jarvis_alex,,0.6204090556174598,178.39735435702266,368.9175415039063,3.3868606
SY,3.53,dft,jarvis_alex,,0.5681033086141305,178.19255956844384,368.629638671875,1.2342752
GaPtTi2,3.201,dft,jarvis_alex,,0.5496357063830539,180.77524659021748,334.1502990722656,4.293343
CuGa2Hf,0.07,dft,jarvis_alex,,0.2959909702762365,164.90352628518994,295.3029479980469,1.4695177
OsReTi2,0.129,dft,jarvis_alex,,0.3019048769784964,248.85525219529728,375.93353271484375,2.550482
GaRu2Sn,0.369,dft,jarvis_alex,,0.360578121700168,166.08602818667646,380.9441223144531,1.6582025
Cr2V,0.046,dft,jarvis_alex,,0.2667555319227999,352.27098218600514,536.8502197265625,1.6107924
Al2GeTi,0.121,dft,jarvis_alex,,0.2979289025651514,264.93407854205594,557.0140380859375,2.5201352
ReTa3,0.088,dft,jarvis_alex,,0.2977388626209378,193.96380046637407,299.3528747558594,2.7178974
CuPd2Zr,0.0,dft,jarvis_alex,,0.1552057915315656,195.56624454785657,336.9892883300781,1.9667768
LiPbRh2,0.0,dft,jarvis_alex,,0.1184828785815883,152.30766189867245,265.3790588378906,1.7263608
MnTc2V3,0.425,dft,jarvis_alex,,0.3363852318368209,319.0073412470918,494.5021057128906,2.3696563
AlCu2,0.0,dft,jarvis_alex,,0.1971875939498262,228.38820161152984,428.7116088867188,0.75520945
AlCY3,0.028,dft,jarvis_alex,,0.2678404221460326,201.11694568926984,432.7160949707031,0.532345
GaTlZr2,0.163,dft,jarvis_alex,,0.3238708198797538,165.71895694085924,288.0478210449219,2.1173086
HRh3Tl,0.39,dft,jarvis_alex,,0.3460276680966078,235.2908552453832,288.5251770019531,4.6161866
HfNi6Sn,0.0,dft,jarvis_alex,,0.1626171921060569,209.360543675512,376.4263000488281,3.3634794
B2CNi2Y,4.099,dft,jarvis_alex,,0.5077406540284993,309.5923137776289,533.8328857421875,2.6935077
OZr2,1.379,dft,jarvis_alex,,0.4127093285807187,271.5202339214849,495.2945251464844,0.9146882
Be4Pd2,2.165,dft,jarvis_alex,,0.4483444115481276,279.37318083242656,629.0872802734375,1.3931465
Mg2NiPd,0.0,dft,jarvis_alex,,0.1353208804666243,183.5073639501097,364.1667785644531,1.4976459
Sc5Y,1.858,dft,jarvis_alex,,0.4789598959578934,178.74861160844443,317.5462951660156,11.659704
Mo2Ta3Ti,8.014,dft,jarvis_alex,,0.7673837716490931,178.8946800838482,343.8515625,6.9361644
Rh,0.564,dft,jarvis_alex,,0.3584122001492744,264.82818278329233,476.5057678222656,1.4748653
MoRhTi2,1.348,dft,jarvis_alex,,0.4180143424367878,248.1859692453189,436.7292175292969,2.6423056
PtRu2W,0.981,dft,jarvis_alex,,0.4041452793584407,217.1532855574308,397.2732849121094,2.0185597
AlSc2Zr,1.837,dft,jarvis_alex,,0.4646585950814011,201.76844516951635,395.2850646972656,4.952983
Nb3Sn2Ti3,15.268,dft,jarvis_alex,,1.352096839883188,133.1602650086801,325.6108703613281,12.316743
B2Pt2,0.0,dft,jarvis_alex,,0.1275455209094952,236.359568508998,384.6250305175781,0.6514908
Be4MoTc,0.097,dft,jarvis_alex,,0.2829676071534131,368.1628642658106,744.688232421875,1.4235842
Ti6Tl2,4.23,dft,jarvis_alex,,0.5832041385673934,196.239016602755,339.3600769042969,6.4420605
BeOsRuSi,2.175,dft,jarvis_alex,,0.4681442817093222,230.71011335637493,484.9355773925781,3.2430303
B4Ta2,16.919,dft,jarvis_alex,,0.9223802422514692,258.8459893125911,630.3246459960938,1.2733046
BaCu2P4,2.92,dft,jarvis_alex,,0.5221271357918117,198.1642843563667,319.1452941894531,0.618373
Nb2ReW,0.005,dft,jarvis_alex,,0.2348749645019428,234.3794492812527,351.8567810058594,1.7832366
PdPtRh2,0.388,dft,jarvis_alex,,0.3517672782604827,207.98556594941155,338.1672668457031,6.427286
N2Re4,8.971,dft,jarvis_alex,,0.6654927827542817,282.244193958812,485.7118225097656,2.700983
Ru3Zn,1.327,dft,jarvis_alex,,0.4192891650042563,240.3841457576476,448.8744201660156,3.7975185
MoRuV2,1.554,dft,jarvis_alex,,0.4197037094578521,280.0726663953967,434.7254333496094,2.5942254
AlHTi3,2.748,dft,jarvis_alex,,0.4713639761042973,282.8586197573471,422.5018615722656,3.1514134
Be4Ru2,0.127,dft,jarvis_alex,,0.305944855647664,215.0392403180765,646.62841796875,0.9233677
CoRu2V,5.869,dft,jarvis_alex,,0.6011908273474335,248.4033621274073,488.3066101074219,5.5512633
Mo3Nb,0.1,dft,jarvis_alex,,0.2920638332714945,269.5258474357253,396.9459228515625,2.0001326
Be4Zr2,2.594,dft,jarvis_alex,,0.4489029290757321,333.1784455372768,638.57421875,3.0900013
GeHNi2Ru,0.618,dft,jarvis_alex,,0.414690867620856,118.42401501143644,405.9904174804688,4.105017
RuTa2Tc,8.828,dft,jarvis_alex,,0.8077730415896855,176.95190819556433,365.3297424316406,3.0627022
Mg3Sc,0.004,dft,jarvis_alex,,0.2353769093801378,203.66098025468065,380.0796508789063,3.3211977
BiHTi3,6.572,dft,jarvis_alex,,0.8420531481913105,119.56184349492791,301.91729736328125,7.2001114
NbW,0.144,dft,jarvis_alex,,0.3100342606348986,215.6055068308199,342.1482238769531,1.4391551
Ga2PtRu,0.043,dft,jarvis_alex,,0.2840787816560131,155.30453464192024,343.6707458496094,1.064388
Re2TiW,0.002,dft,jarvis_alex,,0.2255060058143922,253.21062836894487,393.5591735839844,0.9057777
BeCo2Ti,0.0,dft,jarvis_alex,,0.1264849616132971,322.566257633116,552.7335205078125,1.5842507
B2C2Ni2Zr2,2.822,dft,jarvis_alex,,0.4411162773965447,394.2286847844965,622.3201293945312,4.3674884
AlCu6Ga,0.001,dft,jarvis_alex,,0.2158132668724166,222.54598409188185,339.9423217773437,1.8095263
Rh2TaZn,2.066,dft,jarvis_alex,,0.532926636803455,130.1137948446239,297.7150573730469,3.0614161
SSeY2,0.0,dft,jarvis_alex,,0.1594869210443905,226.2329047184754,321.9290771484375,0.67592204
CoLaSi3,0.112,dft,jarvis_alex,,0.2925834737811895,294.5473456984731,436.37896728515625,1.6529803
Ca2LiMg,0.004,dft,jarvis_alex,,0.2387199402685202,166.3628088789046,148.42990112304688,4.783026
Ga2Ni6,0.0,dft,jarvis_alex,,0.1647635848037029,234.4090445048594,430.7826232910156,13.096009
Al2HfTi,1.868,dft,jarvis_alex,,0.4742525182889889,187.09749268336304,401.7513732910156,3.1306608
BeNbNi2,0.246,dft,jarvis_alex,,0.3259945898607141,237.5007473792473,480.9509887695313,2.5651553
MnPtTi2,2.543,dft,jarvis_alex,,0.524699283998558,169.5314283613123,365.5588073730469,2.538891
H2TaV2,0.012,dft,jarvis_alex,,0.2453846258333871,310.47435406133195,484.1448364257813,3.123023
NbOs2Sc,0.0,dft,jarvis_alex,,0.0975856913862564,255.9682417116728,368.0719299316406,0.50466573
MgOSc2Y,0.509,dft,jarvis_alex,,0.3602110109213687,230.3297114710685,465.7341003417969,4.050083
MoOsTi2,1.991,dft,jarvis_alex,,0.4505180130351204,251.8754531789804,422.5819396972656,3.9876492
Co2KP2,0.002,dft,jarvis_alex,,0.2207917730140826,264.6619645755197,377.6406555175781,1.9549483
PtTcW2,2.406,dft,jarvis_alex,,0.5046766348752044,186.80967526454336,401.9539794921875,2.033427
BeLi2Pt,1.298,dft,jarvis_alex,,0.4293173655445533,207.22707094648368,329.4781188964844,1.6751429
Ca2LiRh,0.005,dft,jarvis_alex,,0.2437669179503624,144.90483279417825,279.834228515625,1.3232988
NiPtSc2,0.583,dft,jarvis_alex,,0.4023218395811571,132.04434833358957,301.6270751953125,2.4096732
Te2Ti6,14.459,dft,jarvis_alex,,1.023552381765459,187.5087981906746,316.7203063964844,14.989339
Cr4TcW,25.245,dft,jarvis_alex,,1.5916361944864894,184.17190384438868,433.90179443359375,9.78972
Ni3Zr,0.0,dft,jarvis_alex,,0.1189494007424596,187.0603510793457,438.5781555175781,2.6326292
AlCa2Li,0.087,dft,jarvis_alex,,0.2968011208308984,199.35103856870413,355.4599914550781,2.7190564
B6Mo2,0.001,dft,jarvis_alex,,0.2063759665105787,550.8852064837554,757.3170166015625,1.185792
GeMgRh2,0.307,dft,jarvis_alex,,0.3598761308631185,140.0511009391795,390.619140625,1.3742762
BRh3Tl,0.036,dft,jarvis_alex,,0.2811259934879654,146.37398411084854,354.220947265625,4.50648
H2Rh2W,1.011,dft,jarvis_alex,,0.3877043546930692,284.2694747897557,427.3782653808594,2.3259149
CMgRuY2,0.017,dft,jarvis_alex,,0.2635550076756927,151.74820410101083,375.1191101074219,2.232089
Al2NbRh3,0.03,dft,jarvis_alex,,0.2672799151256081,222.6397748016327,454.6043701171875,3.5818555
As2YZr,0.316,dft,jarvis_alex,,0.3458572073173007,191.82468519357005,349.94873046875,2.3838277
AgHfNi4,0.0,dft,jarvis_alex,,0.1689774214293127,220.0118737116642,335.3290100097656,8.28793
H2Ti4,6.851,dft,jarvis_alex,,0.6776936610619906,205.52174960539452,435.49908447265625,5.911904
HOTi6,7.184,dft,jarvis_alex,,0.7015065326918434,196.91635866542424,493.7581481933594,5.610202
Mo2RuV3,1.559,dft,jarvis_alex,,0.4226352549037385,270.82429162722707,428.7575378417969,3.9872775
Fe3HMo,0.324,dft,jarvis_alex,,0.3235903098850946,332.28259516451,484.39111328125,4.058809
H6LiNa2Ni,1.653,dft,jarvis_alex,,0.3632070018803855,706.3094363186563,448.1900329589844,1.8767387
MgRhRuSb,0.0,dft,jarvis_alex,,0.2059925184770493,184.75251649564296,357.6556091308594,1.8025749
BeRu3V2,1.484,dft,jarvis_alex,,0.4184230630471526,271.7287990193571,465.2000427246094,3.0604148
CNb2,0.988,dft,jarvis_alex,,0.389460391584797,270.66007393520346,556.4122314453125,1.8789991
RhTc5,7.387,dft,jarvis_alex,,0.6518145981550344,247.53649341307548,499.2206115722656,7.3555818
AgAlZr,1.239,dft,jarvis_alex,,0.4469445639450949,162.6248230673348,358.5714416503906,2.8232727
Fe3HRe,1.527,dft,jarvis_alex,,0.4117247699906797,304.6825145950051,455.3481750488281,3.2130363
HfRu2Zr,0.0,dft,jarvis_alex,,0.1559266591611811,233.8784868078309,351.59765625,1.1516443
Mo2Nb3Tc,0.173,dft,jarvis_alex,,0.3105473740698069,255.87691233715293,391.9392700195313,4.0125904
PtTcTi2,1.727,dft,jarvis_alex,,0.4688692993046981,181.9411295049049,363.8976135253906,3.7611916
Al3RhRu2,0.009,dft,jarvis_alex,,0.2435102126562955,250.21167252682707,502.5621643066406,4.6987276
Al4V2Zr,0.03,dft,jarvis_alex,,0.2617817596156702,289.23259214375906,556.2291259765625,0.62590414
Al7Sc,2.1,dft,jarvis_alex,,0.4519025503000022,261.9197149659076,609.2313232421875,3.8284142
BePtRuTi,0.0,dft,jarvis_alex,,0.0608311983179962,258.8942747774922,411.1074523925781,0.7394106
HLiPd3,0.133,dft,jarvis_alex,,0.3122684598199731,185.6671941908631,314.5884094238281,2.0306346
AlH2Ti2,2.088,dft,jarvis_alex,,0.4526861122322543,257.5093305183975,574.6324462890625,5.309062
Al2TiV,1.639,dft,jarvis_alex,,0.4381429926773585,236.86133193797588,591.55419921875,3.2433112
HfTc2W,0.0,dft,jarvis_alex,,0.1839940344227463,236.4834408325577,361.5899963378906,0.9745018
Be4HfRe,1.192,dft,jarvis_alex,,0.3955112979792577,297.9638989398689,563.7242431640625,3.9404047
AgCTi3,0.102,dft,jarvis_alex,,0.2950208086199988,247.3544873598221,428.8327941894531,2.3948762
Al3Zn,1.63,dft,jarvis_alex,,0.4373951680416173,237.51728484823852,483.2461242675781,1.6271559
CuMgPt2,0.0,dft,jarvis_alex,,0.1927510077531602,155.4783084197889,307.7289123535156,2.8792377
H2Ni,0.544,dft,jarvis_alex,,0.3403573207449261,371.5982122349188,530.8616333007812,0.75429827
OsV2W,0.377,dft,jarvis_alex,,0.3359751251852627,285.18630229351487,430.8976745605469,2.4951458
NNa2Ni,0.0,dft,jarvis_alex,,0.0402638924542416,292.54547973011967,350.2033996582031,0.7725097
Mn4Os2,1.392,dft,jarvis_alex,,0.4083336005203396,290.69495118469706,447.5476989746094,6.291007
C2Te2Y4,0.098,dft,jarvis_alex,,0.2954380194361596,233.10885037721303,347.84356689453125,1.452285
NiTcZr2,0.276,dft,jarvis_alex,,0.3368129922654645,204.9291635678921,348.1054382324219,6.9761868
InMg2Sc3,0.014,dft,jarvis_alex,,0.256944632875589,176.38898272578442,317.9156188964844,6.4459133
PPdY,0.928,dft,jarvis_alex,,0.4161954875306595,174.5020708956141,323.7467041015625,1.4830196
IrNV2,2.364,dft,jarvis_alex,,0.4717826519539213,241.89694830316432,583.95068359375,1.9667845
H3MgRh,11.02,dft,jarvis_alex,,0.6926154152640346,311.64216039418693,519.7083740234375,0.6218795
ScZn2Zr,0.075,dft,jarvis_alex,,0.2972202631645208,169.187468520041,336.7492980957031,3.5048394
MoNbReTi,0.584,dft,jarvis_alex,,0.3642718555995999,245.11298049988648,405.1978759765625,3.2611341
Nb3Os,0.045,dft,jarvis_alex,,0.2738309076476274,247.3346353719456,358.2396850585937,1.9163146
BaPdSi3,2.547,dft,jarvis_alex,,0.4786074828930882,245.58821067053188,331.08123779296875,1.442013
MgNi2Zn,0.0,dft,jarvis_alex,,0.1324737990500601,190.35100553751587,403.5255432128906,1.0824755
CuNbNi4,0.022,dft,jarvis_alex,,0.2633392838637165,201.32886270559408,413.4264221191406,3.2859154
NbTa3,11.555,dft,jarvis_alex,,1.03561960308331,147.57412566351786,258.0154113769531,5.709907
SiTc2V,1.247,dft,jarvis_alex,,0.4047470138193327,273.756509244294,483.9284362792969,2.2025518
Mo2RhTi3,5.669,dft,jarvis_alex,,0.6163453753608855,222.1614119018218,441.7681579589844,6.3988657
HfLuRu2,0.0,dft,jarvis_alex,,0.1634429151038692,191.74600285929284,299.5580444335937,3.0045278
Ca2N2Pt,0.002,dft,jarvis_alex,,0.2209078931921875,249.8889544927644,402.885986328125,3.654478
C2HfTa,4.111,dft,jarvis_alex,,0.4941994468786796,345.8228466307721,516.2894897460938,1.6270692
LiRhRuSb,0.0,dft,jarvis_alex,,0.1284069515903518,219.46144026355205,337.8190002441406,1.8267545
Ni2PtSn,0.0,dft,jarvis_alex,,0.1288449777383004,177.36811194439753,305.678955078125,1.9108399
Ru2ScSi,0.045,dft,jarvis_alex,,0.273933644900748,246.0292384256379,492.4534912109375,2.2228491
Al4Cu2Fe2,0.002,dft,jarvis_alex,,0.222062376494171,233.57680517644044,523.4256591796875,4.501441
CrMn2V,7.983,dft,jarvis_alex,,0.626051860093502,299.68314962851866,593.7430419921875,3.5237622
RhRuSc2,0.0,dft,jarvis_alex,,0.1707729798181064,238.8924076220955,375.8177795410156,1.311133
Be3Cr,0.0,dft,jarvis_alex,,0.1336273673998038,530.4925474689187,903.7559814453124,1.7514851
MoOsTi2,3.615,dft,jarvis_alex,,0.5301339402158078,232.62764569448817,430.8642272949219,4.1250052
Os2RhTa,3.331,dft,jarvis_alex,,0.5534320017277148,184.32677858229053,386.2879333496094,3.1703045
CoHfRhZn,0.0,dft,jarvis_alex,,0.1241846986343861,191.8325012508648,319.7612609863281,0.53121835
Be4OsSc,3.241,dft,jarvis_alex,,0.4823253153349609,301.65128218575563,660.672607421875,5.4744525
AlMn2Re,0.114,dft,jarvis_alex,,0.2952853835417415,272.8462344412669,449.0578308105469,1.7540567
ReRuTi2,0.182,dft,jarvis_alex,,0.3109449737328075,265.3621721127293,385.912353515625,3.957088
HHgLi2Rh,0.01,dft,jarvis_alex,,0.2443730563662247,268.5693653275449,286.4399108886719,0.791393
CoPdSc2,0.0,dft,jarvis_alex,,0.1874587331973944,173.25392629914387,350.9595031738281,3.8204794
AlPRu2,0.003,dft,jarvis_alex,,0.2275754596166293,239.02758915824023,516.8253173828125,0.70764464
Be4OsV,0.015,dft,jarvis_alex,,0.2457867014492164,370.4538513975964,724.8117065429688,1.517695
PtRuW2,0.697,dft,jarvis_alex,,0.3859828356944152,201.89109957753783,375.8307189941406,1.6431166
Ru2TaZn,0.335,dft,jarvis_alex,,0.3474152766197479,196.4133902524036,348.2115478515625,3.9813683
MoRe2Ti,0.399,dft,jarvis_alex,,0.3444213419020382,249.86068755588,355.64874267578125,2.060948
S2TlZr,2.008,dft,jarvis_alex,,0.5303036330157601,128.58558819789346,190.37294006347656,1.7822357
MoNi2Rh,0.469,dft,jarvis_alex,,0.3525569361952856,247.1468074139142,447.5447692871094,4.2233424
CoFeTaZn,0.0,dft,jarvis_alex,,0.1006233650188563,253.7016781980153,398.2167663574219,0.8865432
Pd2PtRh,0.288,dft,jarvis_alex,,0.3432035433053017,185.1058237077036,294.3645935058594,8.21594
AlTc2V,3.774,dft,jarvis_alex,,0.5338604424114761,236.904326256394,477.5470275878906,3.858714
NbReTa2,0.121,dft,jarvis_alex,,0.3039055693064671,218.5656463235437,311.5152893066406,2.4367151
Mn2TaTi,0.011,dft,jarvis_alex,,0.244519527823827,295.22235498265303,405.0060119628906,4.0839386
GaRhTa,1.988,dft,jarvis_alex,,0.4944267432323024,167.53069889948074,347.9327697753906,0.9922728
Al3Li,2.384,dft,jarvis_alex,,0.4602047168068729,273.32243533240364,542.2347412109375,0.52104294
RhRuSiZn,0.0,dft,jarvis_alex,,0.1607688328401981,239.613415715849,434.52392578125,1.6506953
AuHfZr2,1.197,dft,jarvis_alex,,0.4711763180058468,123.33562104694695,237.62779235839844,3.2917447
H2Sc2Zn,0.004,dft,jarvis_alex,,0.2283034102587152,306.89695104414875,496.97509765625,1.7741212
MgRu2Sn,0.163,dft,jarvis_alex,,0.3238282372291686,166.77526906906866,413.9646911621094,4.460123
PtRhTa2,1.255,dft,jarvis_alex,,0.4441898023082968,169.93960676964272,329.0775756835937,2.0632832
GaNTi2,0.107,dft,jarvis_alex,,0.2872124124356245,344.64710835948284,612.5126953125,1.7011284
HfInRhRu,0.0,dft,jarvis_alex,,0.0635140193287811,206.2407855779078,320.6015319824219,0.85962206
AlGaNi2,0.161,dft,jarvis_alex,,0.3174781272394549,194.4411774740906,424.5035705566406,2.8471038
B2NbNi2,39.826,dft,jarvis_alex,,1.5583600339187498,297.6165103212789,666.8492431640625,2.821424
SiTi8,10.647,dft,jarvis_alex,,0.7803213147203704,229.64728912702364,527.7967529296875,10.899857
OsRuTi2,0.0,dft,jarvis_alex,,0.124137554059266,311.9649601810868,456.1664123535156,0.6478677
Ga2NiTi,0.064,dft,jarvis_alex,,0.2863591757815594,212.3094477339787,364.558837890625,2.2445097
BeLiPd2,0.0,dft,jarvis_alex,,0.1543908031101804,272.8613709103593,395.7776489257813,0.7201016
InNScTi2,0.588,dft,jarvis_alex,,0.3689376823032284,226.228446217847,472.9928588867188,3.8660464
CoInRhSc,0.0,dft,jarvis_alex,,0.1058837075608665,219.4736946979044,372.8294372558594,0.7429245