formula,Tc,tc_source,dataset,pressure_gpa,lambda,wlog,debye_temp,dos_ef
LiMg2Ni,0.001,dft,jarvis_alex,,0.219681805946649,205.3585445046243,390.86761474609375,2.0458534
Ga2Ti2Y2,3.997,dft,jarvis_alex,,0.5907578157265942,178.21713995820593,350.8693542480469,7.1565056
Al2Tc2,0.0,dft,jarvis_alex,,0.1982420132141542,284.56506920464045,567.699462890625,0.6691104
B2K2Pd6,0.0,dft,jarvis_alex,,0.1479314905675813,198.0515761037516,287.5085754394531,2.3936362
B4NbV,3.998,dft,jarvis_alex,,0.4656490863734857,434.1512481043719,923.7913208007812,2.8330889
Co2GaSi,0.002,dft,jarvis_alex,,0.2237382814043608,259.7269880135466,538.8544311523438,1.4606942
Nb4Os2,0.742,dft,jarvis_alex,,0.380454750408522,235.017583565444,364.3569946289063,2.8180745
CoH3Mg,0.0,dft,jarvis_alex,,0.1862460393202285,723.6000135238185,646.484130859375,0.90764993
InNY3,0.0,dft,jarvis_alex,,0.1933144909507888,242.5216410130063,377.3266296386719,2.4874122
AgCNiSc2,0.844,dft,jarvis_alex,,0.3969004672426431,206.6639613463264,415.2991333007813,3.8964818
AuCTi3,0.277,dft,jarvis_alex,,0.3456990429822285,168.28349477906707,384.10345458984375,2.0546288
GaLiPd2,0.002,dft,jarvis_alex,,0.2282573750419509,166.33097913132093,311.6249694824219,0.5751033
C4Lu2V2,0.662,dft,jarvis_alex,,0.336057882457536,499.5692493835272,569.4403076171875,2.5032742
MgTc2,0.0,dft,jarvis_alex,,0.1875358338227194,276.649813635637,444.840087890625,1.4174314
GaPdZr,6.508,dft,jarvis_alex,,0.7961670044441305,134.0765857980987,307.6011657714844,2.9513822
RuTc,4.177,dft,jarvis_alex,,0.5290501405295617,271.520332768147,522.1339111328125,2.4635541
BiCTi2,1.033,dft,jarvis_alex,,0.3987027764773536,246.25850654498987,384.0150451660156,2.354325
Al2GeSc,0.1,dft,jarvis_alex,,0.2964056228344799,230.8870050424194,530.8079833984375,1.8853024
NbTc2Zr,0.064,dft,jarvis_alex,,0.2821643332579296,249.90953746715408,394.591552734375,3.2272148
Hf2ReRu,0.046,dft,jarvis_alex,,0.2807283777371814,190.1154813247693,314.24041748046875,3.6544793
LiMg2Rh,0.0,dft,jarvis_alex,,0.2031218947779333,198.78315818569905,373.4528503417969,1.5592309
PtSnZr6,2.358,dft,jarvis_alex,,0.5180708115332066,165.39387726889356,274.6711120605469,9.5442295
H2RhV,9.08,dft,jarvis_alex,,0.6118669747321327,361.6339878497112,568.9950561523438,2.8821409
PtRh2Tc,2.58,dft,jarvis_alex,,0.4879428624387282,229.7848633242562,413.3214721679688,4.022528
Co2LaLiP2,0.053,dft,jarvis_alex,,0.2750900120949396,276.9586971347155,466.9125061035156,4.376831
HfMoRhTi,0.308,dft,jarvis_alex,,0.3365075909380671,230.04856459484267,368.91253662109375,3.4700096
CLiRuY2,0.011,dft,jarvis_alex,,0.2497525342004196,210.4764864075377,396.1846618652344,3.717079
Al2LiTc,0.894,dft,jarvis_alex,,0.4032302730420084,199.96254993740263,515.6376342773438,1.5876489
CuRh2Ta,0.0,dft,jarvis_alex,,0.123009697967634,208.11734304691785,340.7395324707031,0.7562618
Al5RhSc,0.008,dft,jarvis_alex,,0.2405788192480931,285.7097860427243,475.9148254394531,2.3123884
As2Be2K,1.798,dft,jarvis_alex,,0.4394433785812144,255.68523730843947,422.8415222167969,0.790915
Be4TiW,2.324,dft,jarvis_alex,,0.438461226339967,334.3168430071319,663.93896484375,5.649732
CCoPdY2,0.137,dft,jarvis_alex,,0.3215764969318992,147.65700467285478,344.0634460449219,2.190353
CrV3,11.481,dft,jarvis_alex,,0.7962925184850569,236.15926702774345,418.2071838378906,6.180875
AlCaOY2,0.002,dft,jarvis_alex,,0.2258711200318178,229.7439451283201,398.4612731933594,1.8171042
Pt2Ru2,2.435,dft,jarvis_alex,,0.5046940036866093,188.855087902993,371.8616943359375,5.4279475
CuMn2Ti3,5.616,dft,jarvis_alex,,0.6221952687151334,213.74135819201112,411.9733581542969,6.291236
RuZr2,1.29,dft,jarvis_alex,,0.4301796739865512,204.6166097446244,325.13055419921875,3.53401
SiSrZn,0.096,dft,jarvis_alex,,0.2991726448403726,202.57888219106653,344.40155029296875,1.5056918
BeRhRuV,0.0,dft,jarvis_alex,,0.1574930851096412,284.9495229251095,459.2362365722656,0.531439
AuCd2Li,0.12,dft,jarvis_alex,,0.3278642825218106,110.60674495536112,166.8580322265625,1.1728979
InRu2Ta,0.0,dft,jarvis_alex,,0.0609686985224149,234.70463459459324,368.0401916503906,0.080325074
HSbSc,4.738,dft,jarvis_alex,,0.7485450335096515,111.07671986587432,370.83099365234375,1.4872016
RuZr,0.0,dft,jarvis_alex,,0.1854972409363935,243.0769381618963,390.2713928222656,0.8170499
RhRuVZn,0.0,dft,jarvis_alex,,0.1862175818803321,246.5737974351588,383.3927917480469,0.84168476
MgNiSn,0.003,dft,jarvis_alex,,0.2312609705469548,197.950838484425,344.52685546875,1.6937567
Al2PdRu,0.0,dft,jarvis_alex,,0.1605979936341783,239.5531404347753,445.3933715820313,0.97771674
IrNV2,2.58,dft,jarvis_alex,,0.4569492797495775,304.97363094054487,585.3338623046875,3.2925987
OsTi2Zn,0.002,dft,jarvis_alex,,0.2225307132323669,247.97297543829976,405.4802551269531,1.2908237
AsCNb2,3.814,dft,jarvis_alex,,0.4990993604835805,308.63923570988914,509.5808410644531,1.6950799
MoTc2Zr,0.477,dft,jarvis_alex,,0.3539778941759667,244.2166197470385,389.5105285644531,1.589085
Ca2LiNPd,0.0,dft,jarvis_alex,,0.0711148228939888,271.27785085765424,379.9036560058594,-0.0117346
GaMgRh2,0.0,dft,jarvis_alex,,0.1118613459857045,206.5064332848386,417.7935791015625,1.5843557
Ni2Zn3,0.004,dft,jarvis_alex,,0.2415798425994613,122.50535596931296,362.6824340820313,1.6247532
CuOsRh2,2.172,dft,jarvis_alex,,0.5568796543830825,117.03236819765708,403.6765441894531,2.8858457
CTlY3,0.002,dft,jarvis_alex,,0.2279492578302719,169.04950549226422,349.79351806640625,0.26745418
Rh2ScZr,1.805,dft,jarvis_alex,,0.4865409076102305,162.4767082663905,332.9416809082031,2.7634807
MgNi2P2,0.25,dft,jarvis_alex,,0.3274921426977391,231.86628713063817,484.5162048339844,2.4700117
LiMg2Pd3,0.0,dft,jarvis_alex,,0.1296161968539647,191.171356856924,311.3577575683594,0.86256766
AlLi2Y,0.001,dft,jarvis_alex,,0.2199137496965495,195.09551443324165,423.8440246582031,0.8639429
Cu2GaNi,0.0,dft,jarvis_alex,,0.2071423618421339,187.4625794342048,313.6708374023437,2.1899953
ScTc4Y,14.466,dft,jarvis_alex,,2.182334408147774,74.44868827546291,340.57391357421875,7.029529
MoNbW,0.003,dft,jarvis_alex,,0.2293677819415226,252.9621722435165,372.7315368652344,1.0085164
Cu2PtSc,0.0,dft,jarvis_alex,,0.1865189813839101,170.84572821023986,296.4825134277344,1.5683393
B2V,0.345,dft,jarvis_alex,,0.3106462979247884,507.4190231507607,1137.6556396484375,1.3272108
B2Lu,0.457,dft,jarvis_alex,,0.3228902051323706,477.3660406915584,658.33935546875,0.9022369
Mo3Si4,0.001,dft,jarvis_alex,,0.2129481722158785,331.15605298687547,683.2544555664062,1.9942616
HfTc2W,0.005,dft,jarvis_alex,,0.2371699475968243,224.1990717707309,360.8075256347656,1.4068506
HfTiZn6,0.325,dft,jarvis_alex,,0.3579174318664331,153.7681890151404,269.1107788085937,3.3116531
H2Ti2,6.297,dft,jarvis_alex,,0.6155251174102576,246.35985680440209,528.0189208984375,3.198527
MgRh2Sn,0.001,dft,jarvis_alex,,0.2179191343411599,128.20824509446754,339.4107360839844,1.4257331
Al2Cu4Sc2,0.03,dft,jarvis_alex,,0.2670904784117788,227.0808573131592,410.0683898925781,4.432167
AlHf2Re,0.0,dft,jarvis_alex,,0.196890566316753,187.107799502732,292.3934936523437,0.87141746
AgCRuY2,0.196,dft,jarvis_alex,,0.3345894149947701,152.99875689130016,346.5990295410156,2.3364167
Be4RuV,0.034,dft,jarvis_alex,,0.2588159111676401,393.4466331659439,799.3919677734375,2.246149
Li4Si2,0.058,dft,jarvis_alex,,0.2773359907350761,274.77641305031943,552.699462890625,1.8242587
AlMnOsW,0.0,dft,jarvis_alex,,0.1925313392498788,252.47150653112143,405.0740661621094,1.7055773
CaCuZn,0.083,dft,jarvis_alex,,0.3062404003286501,139.20512931185803,298.00030517578125,2.1395612
HMn2,0.82,dft,jarvis_alex,,0.3592240610264233,378.4435368788388,619.249755859375,2.1525927
FeGe3La,0.017,dft,jarvis_alex,,0.2580840067670688,204.5902739742101,297.7540588378906,2.5919788
Nb3RuTc2,7.075,dft,jarvis_alex,,0.7044741587389008,193.3673247125533,406.4202575683594,3.5773747
CaNPbY2,0.025,dft,jarvis_alex,,0.2651400469618526,204.5629128472657,333.5798645019531,2.0153594
LiMg3Sc2,0.043,dft,jarvis_alex,,0.2798075406436683,184.0282804114088,400.1218872070313,5.680277
Ca2LiTl,0.224,dft,jarvis_alex,,0.36285238854593,96.15714149706304,228.119384765625,2.6053467
InMg2Rh,0.358,dft,jarvis_alex,,0.3713226436029608,132.36134503923853,331.8037414550781,1.3628302
ReTc,10.881,dft,jarvis_alex,,0.8507526792220373,196.57730302409905,444.7029724121094,1.2523361
InScZr2,1.031,dft,jarvis_alex,,0.4229291818014882,178.45537179113416,325.02685546875,4.5499363
Be4IrZn,0.8,dft,jarvis_alex,,0.3589329736763444,371.17557891000376,634.3226928710938,1.9012282
Al2CoV,0.003,dft,jarvis_alex,,0.2249865593710833,294.95721715433444,596.4025268554688,1.3489257
LuRh7,0.984,dft,jarvis_alex,,0.4040169451170939,218.4445809579857,383.8030395507813,7.196814
MoVW2,0.003,dft,jarvis_alex,,0.227940650474494,265.3337070888144,384.8399963378906,3.4266775
Fe2RuTi3,0.0,dft,jarvis_alex,,0.1598938542344976,319.3922992889444,524.8864135742188,2.0591614
N3Re3,11.27,dft,jarvis_alex,,0.7101461103076698,299.728054159108,517.0109252929688,5.596626
AlGaRh2,0.0,dft,jarvis_alex,,0.1754452010416916,225.64102673635088,420.3683471679688,1.4877245
Cd2PdRh,0.0,dft,jarvis_alex,,0.0728596970384699,154.7573868004897,261.2625427246094,0.8283098
AuBiCa2,0.0,dft,jarvis_alex,,0.1599303991513916,122.60521958498929,191.31776428222656,0.0004536
H6IrPtSr2,0.264,dft,jarvis_alex,,0.3144200698603087,348.334482595057,303.8979187011719,2.4579508
GaPdSc2,0.657,dft,jarvis_alex,,0.4188446812914065,119.27282464856604,320.6363830566406,2.4454405
Al2Rb2Si2,0.022,dft,jarvis_alex,,0.2620285326347928,216.3837777624929,301.5429992675781,1.0984949
CoNaS2,0.0,dft,jarvis_alex,,0.1471456379052022,300.80941136468823,401.1665954589844,0.0
AlMgPd2,0.011,dft,jarvis_alex,,0.2524240846995066,180.9280088293056,346.9208068847656,0.89624566
NSnTi2,1.984,dft,jarvis_alex,,0.4308400622496416,311.6159480651222,493.50396728515625,3.6724355
CoO2Pd,0.0,dft,jarvis_alex,,0.1072556157372005,339.94751111409147,391.21429443359375,0.69680446
CuGaLiRh,0.002,dft,jarvis_alex,,0.2248889981282691,187.73376669421296,321.5563659667969,2.3191745
LiMgRhSb,0.496,dft,jarvis_alex,,0.3816852080827981,153.66467763688794,319.9999694824219,1.8509637
AuBe2Pd,3.645,dft,jarvis_alex,,0.5865530567531061,165.39667291245678,283.1044006347656,1.2964584
GaNb6W,3.892,dft,jarvis_alex,,0.554630082589819,213.64825530740745,333.164794921875,5.995321
Ga2TaZn,0.039,dft,jarvis_alex,,0.279152442120617,172.6549496218165,357.8168334960937,1.1698747
MgPdRuSn,0.0,dft,jarvis_alex,,0.1759028794619851,168.18144261494143,321.159423828125,1.292878
Pt3Sc,0.003,dft,jarvis_alex,,0.2348597735512767,160.13879851884082,306.1659851074219,3.6677704
Ti6Zn2,1.788,dft,jarvis_alex,,0.437816252949876,259.8357756043342,415.1653747558594,8.4801855
Mg2NiPt,0.0,dft,jarvis_alex,,0.1495829664258454,131.8131993780998,317.2125549316406,2.137036
Al3Co2Ni,0.0,dft,jarvis_alex,,0.1510095348346068,298.1120251297645,607.30810546875,3.2810788
C2Ca2,0.256,dft,jarvis_alex,,0.3294991890355598,226.0160256112673,443.9414367675781,1.2112174
AlCu2Zn,0.001,dft,jarvis_alex,,0.2144431858064708,192.62685243056723,370.1265869140625,0.76576596
OsRuSi2,0.0,dft,jarvis_alex,,0.1850788996974549,212.4364287317815,455.269775390625,1.0321906
InSc6Zr,1.221,dft,jarvis_alex,,0.4274905086968861,200.00243209720452,329.7596130371094,7.984891
AuHfNi4,0.0,dft,jarvis_alex,,0.1586165641525079,219.72988813023764,313.8410339355469,6.695118
Ag2Co2S4,0.153,dft,jarvis_alex,,0.3360347859896184,115.63314981006704,285.8907775878906,-0.0290956
HfTi2Zn,3.884,dft,jarvis_alex,,0.565146006603269,199.89299076809067,335.4336853027344,4.663919
B2Co2Mg,0.0,dft,jarvis_alex,,0.1294513010717765,453.23395344847,694.323974609375,0.97349423
CLaY,1.565,dft,jarvis_alex,,0.45608123510983,186.5016085535378,262.4715270996094,2.464341
Be2Cr6,7.806,dft,jarvis_alex,,0.593887320242149,342.95704712523,669.3280029296875,7.9528365
Ni4PdW,0.005,dft,jarvis_alex,,0.2368649649484266,207.1977317169674,374.9010314941406,4.029712
CuZn2,0.005,dft,jarvis_alex,,0.2393929272524454,180.33820229143365,318.06597900390625,0.5080358
Mo2NbTi,6.97,dft,jarvis_alex,,0.7032942682722604,190.64099739672525,416.7723693847656,5.9142656
BeLiPdPt,0.0,dft,jarvis_alex,,0.1610781639498243,231.8977774693208,369.656982421875,2.3317707
HfNi4Sc,0.303,dft,jarvis_alex,,0.3505019219491653,166.2778321833631,376.6240539550781,4.293485
RhTi5,14.584,dft,jarvis_alex,,1.1285437975739123,162.832726250555,404.4544982910156,7.650209
BeHf2Re,0.894,dft,jarvis_alex,,0.4004100740533162,208.0250384541291,296.9241027832031,2.5912445
B2Tc4,11.052,dft,jarvis_alex,,0.7612704316924724,250.4312680608562,609.1689453125,3.9971216
Cu2Nb,0.089,dft,jarvis_alex,,0.2946882272847397,218.58645972224664,350.9317932128906,1.3938357
Hf4N3,5.664,dft,jarvis_alex,,0.61401220526915,223.22976470054792,380.9955139160156,3.5939438
Al3Os2Ru,0.564,dft,jarvis_alex,,0.3780480646452733,185.71588271452327,435.815673828125,5.9143653
Rh2ScY,0.0,dft,jarvis_alex,,0.1342289685011358,180.33140906924064,301.0194396972656,1.9516708
AlMo2V3,1.934,dft,jarvis_alex,,0.4481451450455257,250.87839985165297,490.9636535644531,4.3971615
MgRh2Zr,0.0,dft,jarvis_alex,,0.0952554465130723,211.53563922766924,371.9775085449219,0.8337063
GaMgPdRh,0.0,dft,jarvis_alex,,0.1993852255422459,175.67028795158845,360.9683227539063,1.9499552
NiPd2Ti,0.0,dft,jarvis_alex,,0.107171967481612,231.9635374203808,392.2531127929688,1.145266
Ca3NPd,0.0,dft,jarvis_alex,,0.1794755993584031,166.62690018522517,329.4917907714844,2.961487
CrMoReTi,0.012,dft,jarvis_alex,,0.2466412836968556,282.8526681910799,403.0398864746094,2.7663255
Cl3CsPd,3.177,dft,jarvis_alex,,0.5539101133647922,175.10937698669872,212.25721740722656,1.2163444
Ni4P3Rb,0.123,dft,jarvis_alex,,0.3064432108993392,204.7280032671086,339.2497863769531,6.1113486
ReV2,0.017,dft,jarvis_alex,,0.2504427015055526,304.892237932537,383.0019836425781,1.994098
N3Sc4,0.005,dft,jarvis_alex,,0.2275537725025558,489.4468457122409,753.7245483398438,2.7639148
MnRhTi2,0.0,dft,jarvis_alex,,0.2077919306145633,296.0585299771396,391.8126525878906,1.5710064
Be2Ca2Si2,0.014,dft,jarvis_alex,,0.2461377091852813,333.3086178348842,581.199462890625,2.4543233
In2Pd2Ti2,3.259,dft,jarvis_alex,,0.6806362608174317,96.50159091714742,315.8684387207031,3.407425
ReV2,0.0,dft,jarvis_alex,,0.2010413761671809,326.50650088868014,417.70025634765625,1.6875017
Al3Ni2Ti,0.022,dft,jarvis_alex,,0.2579456302227539,268.6234456555609,544.3323364257812,2.5953398
CaNi3Si2,3.125,dft,jarvis_alex,,0.5949790399989205,135.60075955064158,444.8388366699219,3.6639545
Ni2Si2Y2,3.994,dft,jarvis_alex,,0.5775698938092464,191.06325877774933,430.4115295410156,5.9697785
SnTaTc2,0.0,dft,jarvis_alex,,0.1891334486030862,217.6374407656033,275.1336669921875,3.1560588
FeHf2Re,0.004,dft,jarvis_alex,,0.234990377857328,207.4167746966738,306.3238220214844,3.4593022
Si4Tc4,2.332,dft,jarvis_alex,,0.4656674179295274,253.47402455234348,486.8600769042969,5.430343
Sn2Ti6,12.065,dft,jarvis_alex,,1.0304443186179042,154.06475342759006,342.3863830566406,14.899496
Al2NiV,0.116,dft,jarvis_alex,,0.298562578595777,249.3240495514448,545.7726440429688,2.6093624
HfP4Zr3,14.01,dft,jarvis_alex,,1.462973225330272,110.06575267025416,432.7676086425781,1.9486649
B2CaRu2,0.63,dft,jarvis_alex,,0.3723439587438511,228.4440989154132,507.0583801269531,2.940562
Be4LiPd,1.292,dft,jarvis_alex,,0.3719469144672068,471.93010630372,732.3287353515625,1.9161068
C3NZr4,0.843,dft,jarvis_alex,,0.3517242210854334,451.82088124643656,632.4890747070312,2.278115
HfMoTcW,0.046,dft,jarvis_alex,,0.2762184650482575,228.0267103514201,343.8914794921875,3.2056677
GaTlZr6,4.202,dft,jarvis_alex,,0.6173811350759308,163.98308415049277,308.3213195800781,5.724192
Al4Mn2Si2,0.246,dft,jarvis_alex,,0.315063677843525,318.43076096313865,592.5308227539062,3.5751212
CuGaNiSc,3.709,dft,jarvis_alex,,0.7093551787196803,98.98855186543368,321.4668884277344,3.1761363
Al4Fe2Ni2,0.0,dft,jarvis_alex,,0.1547417889977536,298.1580848781184,580.4443359375,5.76159
InRu2Zr,0.004,dft,jarvis_alex,,0.2357416586416227,192.35108673241,385.7377014160156,2.9701607
GaNbPt,0.138,dft,jarvis_alex,,0.320028817513728,156.0803936897418,291.6204833984375,1.3203309
NSnY3,1.61,dft,jarvis_alex,,0.4581335436537789,187.9668937718109,370.9278259277344,2.9216084
InLi2Y,0.0,dft,jarvis_alex,,0.1933926357962384,163.13870645200325,351.6116027832031,0.50998557
Al2N2Ti4,0.011,dft,jarvis_alex,,0.2393683243788339,416.0861695558596,711.5696411132812,4.3349996
LiNiOsSi,0.0,dft,jarvis_alex,,0.1851423076580492,236.7612457085615,419.9288024902344,2.2985454
P4Sc2Zr2,0.155,dft,jarvis_alex,,0.3034339960025576,284.76038293533844,513.4302978515625,3.5830905
BeMn2,0.284,dft,jarvis_alex,,0.3152991329553081,366.0580597775472,632.999755859375,1.5242693
Ni2Ti4,12.664,dft,jarvis_alex,,1.0738915913842413,151.37700765789634,392.93267822265625,7.638618
C3HV4,0.019,dft,jarvis_alex,,0.2446336457749384,486.3940121113355,776.7566528320312,3.3177524
Mn2RuV3,2.15,dft,jarvis_alex,,0.4409202580497087,301.8970788371624,524.958251953125,3.5922086
Mg2ScY,0.134,dft,jarvis_alex,,0.3166631274628181,166.04629411846793,331.42755126953125,5.404291
Ca3OTl,0.01,dft,jarvis_alex,,0.2514364880380427,172.17318557075657,274.6291809082031,3.9484673
Ru5W,1.71,dft,jarvis_alex,,0.4335616077212643,260.9507863760633,482.4469909667969,6.2906456
CoHRh2Ti,0.007,dft,jarvis_alex,,0.2381503295982357,288.18067747558854,475.319580078125,1.6128365
Ti2,8.656,dft,jarvis_alex,,0.7523482842326956,201.94674044442937,329.1432800292969,1.8313624
Ru2SiZn,0.949,dft,jarvis_alex,,0.4016741910512111,217.41464098632852,449.1484069824219,3.2380576
AlTi2Zr,3.987,dft,jarvis_alex,,0.554961341245648,218.33280212561613,447.06298828125,4.5078506
GaInLiRh,2.857,dft,jarvis_alex,,0.6203637822549345,109.33620608981836,295.8368835449219,1.8340011
NPbY2,0.039,dft,jarvis_alex,,0.2771832024047043,184.81833535801803,308.9684143066406,1.0606008
NbPtTaTi,0.128,dft,jarvis_alex,,0.3069890182959959,210.5625671186879,320.4145812988281,1.6004124
Hf2InTi,1.256,dft,jarvis_alex,,0.4447890472009915,168.83251098336507,278.3499755859375,3.2712526
AgAl3Y,0.001,dft,jarvis_alex,,0.2226715173339214,188.31110033073745,303.3735656738281,1.382981
In2ScZr,0.053,dft,jarvis_alex,,0.2862645373985867,176.43920340924512,300.7641906738281,3.9697938
BInTi3,0.105,dft,jarvis_alex,,0.2965632923811389,241.04288811621032,532.312255859375,4.1684613
Al2AuFe,0.269,dft,jarvis_alex,,0.3586703095253916,125.12785375667384,400.4811096191406,1.6049787
Rh4Ru2,1.229,dft,jarvis_alex,,0.407833060320442,258.9170256289774,452.2359313964844,5.319624
N2Sc4Tl2,0.037,dft,jarvis_alex,,0.2714205970245124,225.52470572295948,328.13916015625,5.289201
Ca3HgN,0.16,dft,jarvis_alex,,0.3222848175391915,169.55771445805485,281.5765075683594,2.6861737
GeRh2Zn,0.224,dft,jarvis_alex,,0.3387229929585709,158.96902953773574,348.3075256347656,1.5539113
OsTc5,10.319,dft,jarvis_alex,,0.77325274072181,227.3841435169748,488.9268493652344,6.2493186
AlV2Zn,0.027,dft,jarvis_alex,,0.2592288600095592,302.6867238754843,455.3411560058594,2.4663045
MoNb2Ta,4.258,dft,jarvis_alex,,0.5876620864450982,192.9589280767814,300.6477966308594,4.830905
HHgZr3,1.141,dft,jarvis_alex,,0.4207093447730822,202.3421038800023,329.9075012207031,2.0926776
CoHRu2W,0.123,dft,jarvis_alex,,0.2989215019390538,260.8178263308001,461.5127258300781,1.8284261
CaCdOY2,0.996,dft,jarvis_alex,,0.4726557423806523,101.02886762697268,336.1199035644531,4.8624744
MoW3,0.384,dft,jarvis_alex,,0.3451073770841651,236.85478457586024,374.4128723144531,2.1703825
Al2PtRu,0.0,dft,jarvis_alex,,0.1448158307500987,228.37901084901932,417.2608947753906,1.150617
Al2InLu,0.066,dft,jarvis_alex,,0.2887306010496347,200.55955928641572,321.2715759277344,1.1950384
LiRh2W,3.768,dft,jarvis_alex,,0.6277132202648048,139.5853412680464,349.3529968261719,3.753773
HHfSnTi2,8.264,dft,jarvis_alex,,0.8851045658506475,136.55987943333338,327.76129150390625,4.7627835
AlLi3,4.315,dft,jarvis_alex,,0.5922275736864149,190.2531388154997,564.578369140625,2.1826506
AlAuTi2,1.644,dft,jarvis_alex,,0.4510158752146189,206.7107797946378,344.2030334472656,5.1097302