formula,Tc,tc_source,dataset,pressure_gpa,lambda,wlog,debye_temp,dos_ef
AgBe5,1.029,dft,jarvis_alex,,0.3569034166210388,496.9926435312443,679.6124267578125,1.0253996
N2Sc4,0.048,dft,jarvis_alex,,0.2670855241925708,362.6686560273378,737.5350341796875,5.4897676
AlYZn3,0.396,dft,jarvis_alex,,0.3706157174888528,148.1436811375301,344.7732849121094,2.3831575
InRh2Ti,0.003,dft,jarvis_alex,,0.2325631665312133,179.18588635825554,353.2170104980469,1.5836755
AuHMg2Rh,0.029,dft,jarvis_alex,,0.2641604038146649,252.43142809905592,282.4832458496094,1.3249635
Al6LiMg,1.437,dft,jarvis_alex,,0.4144373072515372,276.8277705553665,431.96282958984375,2.2902355
Cu2Ge2Lu,0.021,dft,jarvis_alex,,0.2711301516666642,130.26507867751178,305.2095642089844,1.111256
AuCNb2,1.626,dft,jarvis_alex,,0.4660226513903586,175.62551918937726,429.108642578125,1.9032809
H2Nb2,0.211,dft,jarvis_alex,,0.3142459240154501,278.8890551096442,566.2890014648438,1.0905426
HfRe2Ta,0.004,dft,jarvis_alex,,0.2364477953599011,201.90579568835,330.9536437988281,2.5839615
Be4MoOs,2.384,dft,jarvis_alex,,0.4548364627348818,287.8736593485144,642.3643798828125,3.441074
C4HfNb3,12.638,dft,jarvis_alex,,0.7411793626751602,303.4739666958181,583.3961181640625,0.5134971
AlNbNi,0.017,dft,jarvis_alex,,0.2544926519614424,245.71703366180657,502.4098205566406,1.4174395
PW,0.21,dft,jarvis_alex,,0.3169518087589214,257.3387971361988,458.2618713378906,0.8335494
CdTi5,9.934,dft,jarvis_alex,,0.7811030358649311,213.7924215542912,311.9107360839844,6.954337
CuNi4Zr,0.0,dft,jarvis_alex,,0.185687696440519,214.2928714185934,406.6670227050781,6.949159
Mg2ScY,0.152,dft,jarvis_alex,,0.3220570599667008,162.26299765766078,313.1253967285156,5.7241693
Al2HgSc,0.011,dft,jarvis_alex,,0.2496378938214959,207.71548556141025,331.5362243652344,1.3911798
Os2Ru2,1.975,dft,jarvis_alex,,0.4509498823581653,249.08752328520973,501.58209228515625,2.9970303
AgAlZn,0.059,dft,jarvis_alex,,0.2916456348723431,160.58782241072868,309.3331604003906,0.7184709
Al2Li5,0.276,dft,jarvis_alex,,0.3253895944741002,270.6883649119102,578.0205688476562,1.7286946
AsHfRh5,0.215,dft,jarvis_alex,,0.3254568138275985,210.86494692403133,370.7506408691406,5.334217
H2RuSc2,0.014,dft,jarvis_alex,,0.2489378338049973,283.48194126787604,442.3475036621094,1.2962564
CSc2Tl,0.124,dft,jarvis_alex,,0.3088419392014696,192.4410532290446,336.9718933105469,2.3299997
InNbRu2,0.017,dft,jarvis_alex,,0.2583171156559175,205.33800880072783,365.7457885742188,1.6314101
MgZr3,4.294,dft,jarvis_alex,,0.6223794437546722,163.73864620260858,298.6981506347656,6.6454134
Al4B4,3.548,dft,jarvis_alex,,0.4579779826023722,415.3249282213484,828.8839111328125,2.1457849
BeNi2Sc3,0.418,dft,jarvis_alex,,0.3522237095222998,221.60739488433595,427.6549377441406,4.3545017
Be4RuTc,1.655,dft,jarvis_alex,,0.4112375070478242,332.2245855079033,727.3536376953125,1.5627575
P2V2,0.149,dft,jarvis_alex,,0.2950640524396309,360.4503166865642,666.9658813476562,2.5236306
Be4OsZr,0.0,dft,jarvis_alex,,0.204313107970235,276.14333564513464,595.6495361328125,0.517692
GaMoV2,1.225,dft,jarvis_alex,,0.4105608175461848,248.34342838430405,462.9754943847656,3.7661183
PtTa,0.398,dft,jarvis_alex,,0.3627590401078525,172.02818588983345,314.7455139160156,0.5561719
BeCoH6Na2,0.551,dft,jarvis_alex,,0.3113941500048371,792.2971210130656,505.7214660644531,1.9633393
CrFeTa2,0.003,dft,jarvis_alex,,0.2280540585996743,253.05467235940225,369.6938781738281,1.8874558
AlLiScZn,0.063,dft,jarvis_alex,,0.2830289237186826,238.1817859347232,414.9449768066406,1.7442944
FeHTcTi2,1.244,dft,jarvis_alex,,0.402036438285015,282.96146200015227,489.01654052734375,3.97913
B6Y,9.437,dft,jarvis_alex,,1.2555972711608725,89.94024572177642,709.51806640625,2.5012186
Al3PtSr,0.595,dft,jarvis_alex,,0.3794307952294835,191.1775991719991,303.5277709960937,2.2204854
OTi2,0.329,dft,jarvis_alex,,0.3206987627036948,364.3118248293634,653.85498046875,1.0411874
Al2Li3,0.035,dft,jarvis_alex,,0.2646744182076359,295.6890405447492,622.86865234375,1.1461681
AuHPd,0.129,dft,jarvis_alex,,0.3120496549196478,182.5125800896884,236.4935760498047,0.77281934
Ga2Zr6,5.146,dft,jarvis_alex,,0.6491792090038483,174.2280640869597,291.5929260253906,10.610697
Os3TiV2,12.29,dft,jarvis_alex,,1.000000131265801,164.88125113767987,400.6553039550781,4.90024
BeRh2Ta,0.424,dft,jarvis_alex,,0.3780730038797993,139.28777909050046,392.2884216308594,0.8111948
MoNb2Ru,0.712,dft,jarvis_alex,,0.3767472179185319,239.9725973194834,393.9507141113281,2.0058157
In2LiRh,0.28,dft,jarvis_alex,,0.3569252608793851,135.08944105670983,309.3828125,1.6556363
Nb6PtTa,10.841,dft,jarvis_alex,,0.8855806695519419,181.2928763441953,320.41705322265625,10.303276
MoReTaTi,0.548,dft,jarvis_alex,,0.3631376133387464,234.7984084426621,383.7388000488281,3.143457
GaMoNb6,3.997,dft,jarvis_alex,,0.5570322174135475,216.25246143681449,342.2789611816406,6.1386957
NbTc,0.012,dft,jarvis_alex,,0.2464323498496448,277.3052319813136,414.7359313964844,0.6899398
Li7Rh,0.851,dft,jarvis_alex,,0.4144815612716866,163.381950070462,326.0500183105469,3.3146892
PdZn,0.0,dft,jarvis_alex,,0.162671558091986,163.13654723368631,322.8040466308594,0.74196166
HRh2RuZr,0.944,dft,jarvis_alex,,0.3864090011399646,271.0035309746691,431.8331909179688,4.488533
RuTc2V3,3.352,dft,jarvis_alex,,0.5009813385564627,268.18540219005604,458.5816345214844,4.2193174
B2Be2Cr2,0.154,dft,jarvis_alex,,0.287993098238802,481.9861811235834,1008.2813720703124,2.662546
Cr6Si2,0.884,dft,jarvis_alex,,0.3627264882971725,382.2333993670404,708.425537109375,4.7918396
Al2PtRu,0.0,dft,jarvis_alex,,0.114926322347078,237.9488204620976,421.5412292480469,0.99606663
AuNbRh2,0.062,dft,jarvis_alex,,0.2875961726972233,197.8076126568781,332.4741516113281,1.073664
MoRe2Ti3,5.576,dft,jarvis_alex,,0.6224691313205675,212.08619501525337,352.6625671386719,8.889325
ReV2W,0.003,dft,jarvis_alex,,0.2274056324802928,280.3085132810651,419.9864501953125,3.2838135
AgAl3Ca,0.024,dft,jarvis_alex,,0.2630778822673399,220.69729942997404,305.0124816894531,1.5213296
Fe2ReTi3,0.055,dft,jarvis_alex,,0.2776751416430592,259.43633259258525,479.9206848144531,4.186005
Cu2Zn2,0.001,dft,jarvis_alex,,0.2137440021695386,193.6919854659742,316.5622253417969,0.7018782
AlMoOsTc,1.121,dft,jarvis_alex,,0.4098281791975373,229.53342803619205,422.2597351074219,3.2820725
Sc2Sn2Y2,0.296,dft,jarvis_alex,,0.3455824403580292,180.27543410447507,305.6846008300781,6.2385287
HInSc2Zr,1.606,dft,jarvis_alex,,0.4414043333714821,223.47332816685423,413.6827697753906,5.4724355
AlInRh2,0.01,dft,jarvis_alex,,0.2535656767540657,148.9687410182978,412.6773681640625,0.9978833
LiMgRhSi,2.67,dft,jarvis_alex,,0.5220858140421872,181.3685326548059,445.7686462402344,1.8954915
MoV2W,0.653,dft,jarvis_alex,,0.3678036816429322,256.81199069365334,419.1918640136719,3.3900807
Mo2Rh6,0.507,dft,jarvis_alex,,0.3546730299546488,256.07956698440336,453.1901245117188,6.2555437
Os6Re2,1.528,dft,jarvis_alex,,0.4356807504496539,227.5978360875781,455.6470336914063,4.037997
Mn2TcV3,0.258,dft,jarvis_alex,,0.3154475220662403,331.2071214378112,546.18994140625,2.5416193
Al3CuRu2,0.001,dft,jarvis_alex,,0.2156555219275784,265.1403554624479,485.9156188964844,1.870195
NbRh2Zn,3.957,dft,jarvis_alex,,0.6574890105171325,128.69571996737588,291.8793640136719,3.7566164
CaCu2Sc,0.173,dft,jarvis_alex,,0.3287437904313925,155.7416762332857,312.0731506347656,2.75218
NbScW4,0.006,dft,jarvis_alex,,0.2391212168978684,210.52779366059227,332.0040588378906,3.2837768
Au2InY,1.424,dft,jarvis_alex,,0.5586121497117742,75.96724370602664,169.52427673339844,1.7590665
AlMo3Nb3Sn,3.982,dft,jarvis_alex,,0.5593697447900567,212.1616660440091,397.5174255371094,7.745167
AlMoTi2,0.54,dft,jarvis_alex,,0.3605426295910341,243.2241464424861,361.7364501953125,3.6245074
MgPtRhZn,0.0,dft,jarvis_alex,,0.1097566538190982,170.0610328659645,320.8800964355469,1.7912867
Os2Re6,5.189,dft,jarvis_alex,,0.621422379406116,199.02249677307083,429.7755432128906,5.8073826
FeMnNbTi,0.0,dft,jarvis_alex,,0.1983067163778305,306.78715272293573,441.2036437988281,2.430385
AlV3,8.301,dft,jarvis_alex,,0.7294751500847565,207.8599661633353,477.6473388671875,3.0689938
C2Cd2Ti4,0.085,dft,jarvis_alex,,0.2886496639603558,257.5593422276054,398.393798828125,4.207211
CrNb2Ru,0.096,dft,jarvis_alex,,0.2909723526557725,268.9862445043925,385.1112365722656,1.7869762
HRhRu2W,0.408,dft,jarvis_alex,,0.346725375526131,242.54213302721183,440.841552734375,1.9250592
Hf3N4Sc,13.167,dft,jarvis_alex,,0.8193543570843268,253.53834884563173,440.0517883300781,1.9040294
HNaPd,9.363,dft,jarvis_alex,,0.7746841735504335,203.03317674497217,258.3015441894531,0.6548166
GaMoV,0.817,dft,jarvis_alex,,0.3796110420816246,262.1779395489091,448.6236877441406,1.3148926
Li4P2Sc,0.01,dft,jarvis_alex,,0.2421780433468943,298.9717225876413,551.0216064453125,2.620822
InMgPd2,0.107,dft,jarvis_alex,,0.3232081537155378,110.82095026897515,244.59152221679688,1.6314937
H2MnMo,11.664,dft,jarvis_alex,,0.7453292052271686,276.3054491716968,625.6756591796875,2.8511813
MnOsTi2,0.017,dft,jarvis_alex,,0.2512190563371336,289.20415064855587,411.5924377441406,3.8346035
H3NiY,0.345,dft,jarvis_alex,,0.3417959506687642,228.15317957904168,502.3685607910156,0.28384516
AlGaTi6,1.457,dft,jarvis_alex,,0.4181991850500877,267.5650323724718,460.3936462402344,6.346438
Al2TiZr,2.16,dft,jarvis_alex,,0.4858323055713171,195.31095610171715,515.8165283203125,3.3278995
Mo2Ta2Ti2,7.581,dft,jarvis_alex,,0.7143256083810384,199.9950798318346,358.6269836425781,7.8998013
Ge2Rh6,0.839,dft,jarvis_alex,,0.4001900333103878,196.22595489822456,364.127197265625,9.237749
InSc2Zn,0.0,dft,jarvis_alex,,0.2087118774365139,176.21000422201354,311.8374328613281,3.261834
GaNY3,0.008,dft,jarvis_alex,,0.2469231502729696,182.7585118467105,401.6200256347656,2.3059225
GaHf2Mo,0.695,dft,jarvis_alex,,0.3953376041140193,174.44302574815666,275.7058410644531,3.1992996
MoTa2W,0.268,dft,jarvis_alex,,0.3366409840040734,199.8832676806631,364.4100036621094,3.1776187
Pd2SnY,5.967,dft,jarvis_alex,,1.365845591191965,51.07820649943599,204.883544921875,2.6419187
TiW3,0.314,dft,jarvis_alex,,0.3393815905190787,219.76529293001948,377.1961364746094,3.92513
ReTcTi2,1.467,dft,jarvis_alex,,0.4259795530937547,244.4349989329517,355.94140625,3.7401907
La2Ni2Si2,4.428,dft,jarvis_alex,,0.636549706888174,157.64449393250092,344.0433044433594,7.2384844
InLiNi2,0.0,dft,jarvis_alex,,0.1835615276652372,138.6405283848151,270.4703063964844,3.1645396
Ba2BeH5,0.0,dft,jarvis_alex,,0.2074104537528419,315.78870560271923,342.2020874023437,1.5521744
AlLiNiSc,0.38,dft,jarvis_alex,,0.3412277886707072,254.9038712503489,448.4593811035156,4.685912
MoRuScTc,0.001,dft,jarvis_alex,,0.2141014131670911,263.55598149307855,412.25970458984375,1.2040638
Cu3S4Ti,0.099,dft,jarvis_alex,,0.3146683458844221,128.86388381257836,310.4744873046875,9.886232
Al2C2Cr2V2,0.018,dft,jarvis_alex,,0.2456861022803489,431.57854903242526,711.6004638671875,4.309368
Co2Nb4,4.796,dft,jarvis_alex,,0.5927321259471631,211.707746237287,380.1425476074219,5.422993
NiP2Y,0.514,dft,jarvis_alex,,0.3533065922472806,266.7713958799389,494.0735778808594,1.8010322
LiRuY2,0.019,dft,jarvis_alex,,0.2654359836797194,158.9473417250951,289.77105712890625,2.4708438
H2Ru2Si,2.935,dft,jarvis_alex,,0.5016579260123598,232.34963493897425,512.1441650390625,2.7275555
AlHZr3,1.345,dft,jarvis_alex,,0.4239189655337851,229.36623456566772,436.2087707519531,1.5153351
H2PdZr2,5.267,dft,jarvis_alex,,0.6587405531358247,170.07746791813494,353.3135681152344,4.048298
NbRe2Ti3,8.267,dft,jarvis_alex,,0.7730040374587189,181.15444839847805,324.8926696777344,6.0975637
NiPtZn2,0.0,dft,jarvis_alex,,0.1688872632419552,121.64829815234091,332.6767883300781,1.1920025
CN3Zr4,6.338,dft,jarvis_alex,,0.520323242291714,436.80707472938406,643.0983276367188,1.7375689
Pt6Zr2,0.0,dft,jarvis_alex,,0.0708657220016422,182.8109498141092,312.7657470703125,0.9047437
MnTa2W,0.011,dft,jarvis_alex,,0.2485354675526139,219.656211218171,342.3523864746094,2.9430523
MoOsScTc,0.0,dft,jarvis_alex,,0.1910637079852413,260.02694387815944,378.4391784667969,1.947434
Be4NbRe,0.069,dft,jarvis_alex,,0.2746178006869934,370.0009282435354,598.232666015625,2.5696971
CoIrMo2,0.768,dft,jarvis_alex,,0.381166367611251,240.57580905669488,435.9768981933594,2.1103268
NiPY,0.153,dft,jarvis_alex,,0.308985348962779,236.7408941213603,410.7231140136719,1.4567279
ReRuV2,3.503,dft,jarvis_alex,,0.5090885555959525,262.98905147680745,424.3559875488281,3.4716344
CdNSc2Y,0.239,dft,jarvis_alex,,0.3395999089712891,166.21461361452418,437.165771484375,4.6301136
Al2MgZr,0.0,dft,jarvis_alex,,0.1714964159263863,286.948002264437,460.3894348144531,1.1451488
NbTlZr2,6.97,dft,jarvis_alex,,0.7942594684338719,144.29593770895198,222.2579803466797,4.3761883
Al2Zn2,0.635,dft,jarvis_alex,,0.3722606511117267,230.5616384203107,372.6903991699219,0.9864646
Cr4NbSc,0.2,dft,jarvis_alex,,0.3104917018701083,295.06582602254804,404.3783874511719,4.481684
Ni3Sb,0.021,dft,jarvis_alex,,0.263920110294534,188.2697154489867,319.9995422363281,3.302655
Nb6OsTc,3.531,dft,jarvis_alex,,0.5403034408003649,212.3824896545933,371.0736389160156,7.038359
PdPt3Rh2,0.68,dft,jarvis_alex,,0.3923558664959581,178.5420638327277,312.8333435058594,11.477263
LuOs2Ta,0.0,dft,jarvis_alex,,0.0840209625941976,197.5066822069415,301.5569763183594,0.9379543
Co2Mo4,8.425,dft,jarvis_alex,,0.7309595106820754,210.28812639285283,469.7625427246094,7.154833
OsPtRu,1.758,dft,jarvis_alex,,0.4504634176971117,222.81600242224823,397.91259765625,1.8273954
InZnZr2,1.247,dft,jarvis_alex,,0.4516891478410631,155.78678820002906,315.6177062988281,4.450859
Ru2ScSi2,0.311,dft,jarvis_alex,,0.3398341306371654,215.0219113974917,490.35150146484375,2.5707884
GaRhTcTi,1.404,dft,jarvis_alex,,0.4300766567555417,222.91638565867092,443.0951843261719,4.7410216
AuGa2Zr,0.751,dft,jarvis_alex,,0.4162593939280926,141.26954669563932,274.8267517089844,1.6589705
RuTaTcTi,0.0,dft,jarvis_alex,,0.15204466233511,274.2302297799122,393.6925964355469,1.7022153
Co2HfP2,0.874,dft,jarvis_alex,,0.390109283631414,237.2319818606552,445.8232727050781,3.96683
La2N,3.518,dft,jarvis_alex,,0.5981903086681601,150.17392859372734,305.3138122558594,3.023234
AlRu2Sn,0.008,dft,jarvis_alex,,0.2434615516211744,213.75405352083845,422.7760314941406,1.868567
CoTcTi2,0.0,dft,jarvis_alex,,0.1679029563396217,298.8939488120646,484.3692932128906,1.6422857
CoO2Pt,0.0,dft,jarvis_alex,,0.0910011885306234,272.6078535043751,358.0312805175781,0.52674156
CoRh7,0.776,dft,jarvis_alex,,0.3771081723723158,259.860310440859,455.2530822753906,13.481686
MgPt2V,1.374,dft,jarvis_alex,,0.4471088481156528,179.9763324675469,326.7800598144531,1.7544764
Ag2AlMg,0.029,dft,jarvis_alex,,0.2772044389563529,137.94756246007816,253.02232360839844,0.90872866
PbSSc2,0.88,dft,jarvis_alex,,0.431661395174337,136.79414400247444,340.53857421875,2.9502559
As4Fe2Zr2,1.43,dft,jarvis_alex,,0.4416951022590298,198.739518475875,384.7646179199219,5.0310335
Nb2Si2V2,0.604,dft,jarvis_alex,,0.362336648490733,262.64725642954454,515.83154296875,4.528983
Mn2TiW,0.0,dft,jarvis_alex,,0.2069534882316494,297.27890845595334,453.0820617675781,1.0787921
AgMo2Ti3,7.553,dft,jarvis_alex,,0.710110065542005,201.9820489878072,402.9456787109375,5.784953
Pt2RhRu,0.786,dft,jarvis_alex,,0.3907789821402067,211.40202035795733,354.4140319824219,5.982951
AsGeV6,7.13,dft,jarvis_alex,,0.6033300851717288,298.45686480416407,405.2420349121094,10.861785
AuBe2Rh,0.104,dft,jarvis_alex,,0.2972415475519256,234.56425842542703,257.3988647460937,1.747081
Al2GaTi,0.964,dft,jarvis_alex,,0.3880295639252366,270.5047981756233,513.6986083984375,1.8700103
LuRu2Zr,0.0,dft,jarvis_alex,,0.1821250886821621,211.0331982921925,326.3334655761719,2.2365587
Al4Sc2,0.009,dft,jarvis_alex,,0.2412763266968897,285.1382726519414,550.690673828125,2.4751434
MgScZn2,0.274,dft,jarvis_alex,,0.3523160206207907,145.1221169554107,342.25555419921875,1.5175458
IrK2NbO6,0.0,dft,jarvis_alex,,0.1291570240588016,486.6165170634671,555.4564819335938,6.4949374
HfPt2Ru,0.065,dft,jarvis_alex,,0.2890104622359334,194.1298367745779,330.0042724609375,3.0262747
MoRu2Zn,0.091,dft,jarvis_alex,,0.2958723245704824,215.01665802451208,393.5776062011719,1.7071528
AlCdTi2,0.018,dft,jarvis_alex,,0.2551038961784945,258.3096800699954,359.1914367675781,4.1059246
CaN2Nb,19.305,dft,jarvis_alex,,0.9653796373170124,273.39358422571684,669.44482421875,2.2122512
HfTc4Y,15.82,dft,jarvis_alex,,2.022269055705713,88.30097701428838,316.8510131835937,10.348971
NiPd2Zn3,0.0,dft,jarvis_alex,,0.1697928480492363,166.9033597750237,343.6209716796875,1.4519507
Be2PdRh,0.0,dft,jarvis_alex,,0.1619765416657326,307.7859691025063,494.9205017089844,0.92621094
OsScZn2,0.147,dft,jarvis_alex,,0.3242661415292954,148.4907606722005,305.0826721191406,1.4106822
Nb2RuTa,0.725,dft,jarvis_alex,,0.3834997432579712,218.5993663698201,329.9153137207031,2.2186303
CdNY3,0.683,dft,jarvis_alex,,0.4233962020016224,117.2398067013114,372.0457458496094,2.0256734
AuMo2Ti3,6.911,dft,jarvis_alex,,0.6887699343487733,199.32395145975,382.1046447753906,6.6717596
ScZn2,2.673,dft,jarvis_alex,,0.6066367657766039,109.33605563358152,312.5358581542969,2.144231
AuBa2H6Pd,1.061,dft,jarvis_alex,,0.3967175906488064,260.55789405919774,265.82379150390625,1.9337267
Al2LuSc,0.059,dft,jarvis_alex,,0.2910836128885115,164.669104588861,336.7920227050781,1.6669489
AlGaPtRu,0.007,dft,jarvis_alex,,0.2464674267208782,170.06946156437542,375.0855712890625,1.0939428
LiPRh2,0.696,dft,jarvis_alex,,0.3862515528619287,200.43369600882085,476.6867370605469,1.5424917
HNiRuV2,6.467,dft,jarvis_alex,,0.8259035587660323,122.40037796199302,475.6717224121094,3.4610815
Al5Ti3,0.027,dft,jarvis_alex,,0.2587994250441642,313.2808882086203,601.5479125976562,4.8858213
In2Ti6,4.451,dft,jarvis_alex,,0.581306129042517,208.82487363270343,364.7785339355469,10.462186
Cr2MoV,0.054,dft,jarvis_alex,,0.272103638295495,324.0300449429974,477.6085510253906,2.074689
GaRh2Zn,0.0,dft,jarvis_alex,,0.1066039552916566,191.5562270422257,345.9116516113281,1.1302707
Nb2PdRh,3.061,dft,jarvis_alex,,0.5250750003749006,204.3244815427507,391.1748962402344,3.1613894
BBeZr,1.598,dft,jarvis_alex,,0.3904466284491291,431.1759844465967,829.2880859375,1.1982319
CNb2Se2,0.271,dft,jarvis_alex,,0.3241927037767652,273.68171472427395,235.3760986328125,1.0423651
LuOsSi3,2.795,dft,jarvis_alex,,0.5093417582415678,208.6656612672708,363.8427429199219,2.0572133
Ca3OSn,0.0,dft,jarvis_alex,,0.1371403050289309,198.30952407017585,335.5923156738281,0.020675
AlCaLi2,0.342,dft,jarvis_alex,,0.3419190497432125,225.51419860086065,406.6010437011719,3.3778627
Cs2Mn2N4,14.558,dft,jarvis_alex,,0.6789223165980074,435.0342557222663,339.2673645019531,4.1539516
HNbNiRh2,0.001,dft,jarvis_alex,,0.2156460505684407,249.963678777097,433.3748474121094,0.8659115
AgMg2Pt,0.001,dft,jarvis_alex,,0.2207642179039155,128.8751220726826,252.96958923339844,1.4210618
RuTc8,18.708,dft,jarvis_alex,,1.141625846379435,208.6222723191087,515.207275390625,11.739065
HfOsRuTi,0.0,dft,jarvis_alex,,0.1161954938775892,254.8079157215036,377.1296997070313,1.3421644
CoMgRhZr,0.0,dft,jarvis_alex,,0.1187055380737713,218.6343139645324,369.6224670410156,1.2336487
Tc2Zn,1.229,dft,jarvis_alex,,0.4124050826562453,243.32035169072023,430.5019836425781,1.43433
H2Sc2,0.215,dft,jarvis_alex,,0.315701196122257,273.6011281141584,633.2796020507812,0.76619786
HRhZn,1.223,dft,jarvis_alex,,0.4425462128399056,168.14443373993598,373.8861389160156,2.0615816
AlCInSc2,0.0,dft,jarvis_alex,,0.2011968300601228,288.08991941499124,537.8135986328125,0.9488736
Be4CuRh,1.908,dft,jarvis_alex,,0.4164257811035872,357.54830170734215,747.892333984375,1.4742295
AlLa3,10.049,dft,jarvis_alex,,1.4239953340859743,83.25205993595489,183.37510681152344,5.2042193
PtRu5,1.893,dft,jarvis_alex,,0.4428460597607772,260.26659737562994,442.5827331542969,5.669453
MoW3,0.393,dft,jarvis_alex,,0.3454890776878787,240.097932091107,375.2099609375,2.2277663
CaNi2Si2,0.086,dft,jarvis_alex,,0.2892674280313178,256.3791149386648,464.9818420410156,3.652735
PtRhSc2,0.24,dft,jarvis_alex,,0.3560860005475842,117.804101442998,295.11260986328125,3.5955675