formula,Tc,tc_source,dataset,pressure_gpa,lambda,wlog,debye_temp,dos_ef
InP,10.484594941233798,dft,jarvis_3d,,0.9053,163.5292,,
Ca2Si2,0.08529931268286221,dft,jarvis_3d,,0.2663,268.8443,,
Co2Te2,0.9482922029387372,dft,jarvis_3d,,0.3913,180.2231,,
Sb2Ti2,0.2768478062833678,dft,jarvis_3d,,0.3279,151.2638,,
Li2Zn2,2.728642978383175,dft,jarvis_3d,,3.4812,13.9676,,
AlTi,0.5021500866386835,dft,jarvis_3d,,0.3258,286.9019,,
Cu2Ti2,0.34258594934024594,dft,jarvis_3d,,0.3149,250.156,,
Al3Sc,0.020895502776674544,dft,jarvis_3d,,0.2321,335.325,,
MnSc2Si,2.876311481132297,dft,jarvis_3d,,0.585,115.8464,,
CoZn3,0.1336028444964332,dft,jarvis_3d,,0.2925,175.4532,,
Ni3Sb,0.011999744199636998,dft,jarvis_3d,,0.2332,180.553,,
PtRh3,1.5023677608160566,dft,jarvis_3d,,0.4165,210.2704,,
BeSc2Tc,3.2884515757017314,dft,jarvis_3d,,0.5055,210.1997,,
Be2CuSc,3.6752909214545677,dft,jarvis_3d,,1.2536,36.9561,,
Be2LiNi,1.6040779345157883,dft,jarvis_3d,,0.3978,280.377,,
Be2SeTi,6.203413848556603,dft,jarvis_3d,,0.7013,157.8264,,
BeNbRu2,5.364437389841766,dft,jarvis_3d,,0.6053,196.4558,,
BeCdLi2,3.7301037667566947,dft,jarvis_3d,,0.5595,171.2825,,
BeLiOs2,1.715249859094574,dft,jarvis_3d,,0.4092,261.0128,,
BeTiZn2,1.3966175347200904,dft,jarvis_3d,,0.4288,171.1592,,
Be2PdZr,1.3094322497458786,dft,jarvis_3d,,6.433,5.6881,,
BeGeV2,3.2189477555721604,dft,jarvis_3d,,0.4516,315.8565,,
BeHfZn2,3.305553838277494,dft,jarvis_3d,,0.6106,118.2308,,
Be2CdRu,0.9035562109305011,dft,jarvis_3d,,0.3641,254.4625,,
Be2CaRu,2.9594171167529155,dft,jarvis_3d,,1.9538,20.2261,,
BeLiNi,1.4019726894798723,dft,jarvis_3d,,0.3982,243.8201,,
Ba2KPd,0.6914860014654998,dft,jarvis_3d,,1.1496,7.691,,
Be2MnV,9.03472728916272,dft,jarvis_3d,,1.1119,104.7599,,
Be2CrRu,1.7216238473704766,dft,jarvis_3d,,0.3859,351.7382,,
Be2NiY,6.54482768959181,dft,jarvis_3d,,1.8429,46.5839,,
BeCoZn2,0.0417449803246059,dft,jarvis_3d,,0.2514,245.6714,,
Be2ScTa,1.7548659672675073,dft,jarvis_3d,,0.4475,178.8438,,
BeNaPd2,0.14310326657819222,dft,jarvis_3d,,0.3043,135.8569,,
BeMoTi2,10.508201513965147,dft,jarvis_3d,,1.7575,77.4536,,
BeScTl,2.2112493069853434,dft,jarvis_3d,,0.5853,88.9302,,
BeRuZn2,5.607658630195124,dft,jarvis_3d,,1.0269,72.3043,,
BeHfMn2,7.073027926984129,dft,jarvis_3d,,0.6637,204.5543,,
Be2TaTi,5.269650446911313,dft,jarvis_3d,,0.8739,87.1636,,
Be2CaOs,3.033623923080947,dft,jarvis_3d,,0.7352,69.6452,,
Be2NaPt,5.51946087109196,dft,jarvis_3d,,1.9388,37.9196,,
BeGaMn2,0.05502295815866868,dft,jarvis_3d,,0.2493,356.9344,,
BeLiNi2,0.16618897521317927,dft,jarvis_3d,,0.2875,253.3547,,
BeMnV2,5.564254071770563,dft,jarvis_3d,,0.5282,306.4442,,
Be2ScZr,2.4648487462379336,dft,jarvis_3d,,0.4466,253.3277,,
BeCa2In,2.157505165199222,dft,jarvis_3d,,2.8899,11.8981,,
Be2GeIr,6.36231733402438,dft,jarvis_3d,,0.6396,201.6013,,
AsPd2Rh,4.000563265684298,dft,jarvis_3d,,0.9761,55.4981,,
CaMg,0.0721834578627649,dft,jarvis_3d,,0.2804,137.8451,,
BaO3Sb,15.050185370440415,dft,jarvis_3d,,1.6783,114.9707,,
BeClP,8.326731002333631e-20,dft,jarvis_3d,,0.1147,192.0215,,
NbO3Sr,0.0024901898746795105,dft,jarvis_3d,,0.2056,273.0735,,
NbO2Sr,0.5517935976616684,dft,jarvis_3d,,0.3742,133.11,,
AsBr2Ca,2.4694999748685853,dft,jarvis_3d,,1.2106,25.8303,,
As2H2O2,19.917011058113026,dft,jarvis_3d,,2.1722,127.2618,,
AsO3,2.917224434435756,dft,jarvis_3d,,1.168,31.8276,,
CTa,16.104558147243274,dft,jarvis_3d,,0.8884,259.1033,,
BNb,13.822823550268252,dft,jarvis_3d,,4.6714,64.5616,,
Ir2Ti6,8.85759233604177,dft,jarvis_3d,,2.0818,58.0914,,
Ga2Nb6,1.5021661431802429,dft,jarvis_3d,,13.3629,5.9134,,
HfN,8.064656781384056,dft,jarvis_3d,,0.6162,281.4893,,
Sn2V6,7.473196277660825,dft,jarvis_3d,,1.7822,54.5096,,
Sn2Ta6,5.319077770765046,dft,jarvis_3d,,2.7344,30.0796,,
Rh2Te2,3.8255589227725135,dft,jarvis_3d,,0.7252,90.4256,,
CNb,17.155451017952267,dft,jarvis_3d,,0.7927,338.4463,,
NNb,17.565177796309943,dft,jarvis_3d,,0.8838,285.0659,,
Re6W2,2.11246036981921,dft,jarvis_3d,,5.4038,9.5178,,
La4,5.164265398375433,dft,jarvis_3d,,3.2955,26.981,,
Ge2V6,15.420536845528298,dft,jarvis_3d,,2.1113,100.2512,,
BeCrO2,8.001262534212506,dft,jarvis_3d,,0.6326,260.7477,,
BCdO2,2.3213494291423578,dft,jarvis_3d,,0.5456,115.201,,
B2Cl2N2,10.680843367846068,dft,jarvis_3d,,0.9494,154.5142,,
B2Cl2,2.760737488341189,dft,jarvis_3d,,0.6351,89.0635,,
BGeO,5.06190075284852,dft,jarvis_3d,,6.9299,21.6894,,
BNbO2,8.351484296023283,dft,jarvis_3d,,2.1482,53.7213,,
FP2,4.764230524887398,dft,jarvis_3d,,2.9813,25.9211,,
BS2Sr,1.3896212973153221,dft,jarvis_3d,,0.5043,89.5683,,
BaO2Sc,0.009596566441649966,dft,jarvis_3d,,0.2252,236.2691,,
BaO3Ta,0.0006621797831725156,dft,jarvis_3d,,0.1893,393.6169,,
BaO2Ta,8.211095236841334,dft,jarvis_3d,,2.2367,51.5679,,
BeHO,8.57299123990205,dft,jarvis_3d,,2.6151,49.5278,,
BrOSc,1.3270015345729962,dft,jarvis_3d,,0.5752,56.1171,,
CdO2S,0.9791773617043642,dft,jarvis_3d,,0.405,156.6253,,
ClF2,3.1624278807028263,dft,jarvis_3d,,0.8197,58.5828,,
ClOTi,2.9868863680006945,dft,jarvis_3d,,0.4346,344.9615,,
FMgSb,4.211251858003909,dft,jarvis_3d,,2.7035,23.9425,,
FMgTi,4.357504356301731,dft,jarvis_3d,,0.8303,78.8496,,
AlCN,10.235058086186115,dft,jarvis_3d,,0.9534,147.114,,
FO2Os,1.026814974524364,dft,jarvis_3d,,0.3586,316.1535,,
FOP,0.5378668350163743,dft,jarvis_3d,,0.3862,109.4412,,
FORh,7.3280086506355415,dft,jarvis_3d,,1.021,95.2535,,
HOZr,11.462000591223653,dft,jarvis_3d,,1.235,117.1939,,
HO2,4.044317133671654,dft,jarvis_3d,,1.2943,39.2786,,
HfO2Y,5.817928521594699,dft,jarvis_3d,,0.6459,179.8635,,
Li3NbP2,3.0607917727955436,dft,jarvis_3d,,0.5146,183.9538,,
LiO3Sb,2.1578768886937193e-16,dft,jarvis_3d,,0.1204,67.6264,,
AlTe2,3.540778679907956,dft,jarvis_3d,,1.9164,24.5195,,
Cl3Nb,0.5442701958724365,dft,jarvis_3d,,0.3603,162.9592,,
NbO3Sn,3.132787766768035,dft,jarvis_3d,,0.9211,47.519,,
NbO3Sn,3.840739856407541,dft,jarvis_3d,,1.1143,44.4124,,
BrNbO,9.23585001193796,dft,jarvis_3d,,1.6121,72.9029,,
Br2Nb2O2,1.6770630711136725,dft,jarvis_3d,,2.9112,9.2188,,
ClFSi,0.20596645635851044,dft,jarvis_3d,,0.3128,158.1104,,
ClF2Si,2.387278300117424,dft,jarvis_3d,,2.7082,13.5614,,
ClLiSn,3.2436863542838537,dft,jarvis_3d,,3.879,16.0004,,
ClSTi,8.196166665285594,dft,jarvis_3d,,0.7393,185.9771,,
GaMgO3,0.02353429001231619,dft,jarvis_3d,,0.2464,175.3944,,
GeO3Pb,0.12853242964986275,dft,jarvis_3d,,0.288,192.9809,,
GeOSn,4.449226971618739,dft,jarvis_3d,,7.4638,18.8243,,
GeO3Sn,7.92160433635656e-06,dft,jarvis_3d,,0.1693,96.4873,,
ClLi2,1.7555385658723386,dft,jarvis_3d,,0.4572,163.7969,,
Cl2Li,9.081481605829543,dft,jarvis_3d,,0.8798,148.5122,,
Li2N2,0.8129511330356318,dft,jarvis_3d,,0.334,391.8149,,
AsMg,2.449862693453431,dft,jarvis_3d,,1.2174,25.4605,,
MgP2,1.8281180061324964,dft,jarvis_3d,,0.5748,77.4659,,
MgS3Ti,3.6315816570888204,dft,jarvis_3d,,0.9471,52.7327,,
As2Cl2S2,0.4286453550733263,dft,jarvis_3d,,0.3741,103.5558,,
AsO2Ti,2.252121737881023,dft,jarvis_3d,,0.7969,43.9835,,
As2Se,9.564743345739082,dft,jarvis_3d,,1.7322,71.2829,,
BLi2S2,4.746482785868041,dft,jarvis_3d,,1.3839,43.0348,,
BMgO2,1.947656835938611,dft,jarvis_3d,,0.5104,120.3918,,
B2P2Sr,8.562368527722716,dft,jarvis_3d,,0.5277,473.0327,,
Al2O2,3.1289910400092884,dft,jarvis_3d,,12.1304,12.4317,,
BaOP,2.897473451386057,dft,jarvis_3d,,0.8584,49.4235,,
BaO3Pb,1.3014248051544892,dft,jarvis_3d,,0.4565,122.1836,,
BeBrMg,1.6819208681293507,dft,jarvis_3d,,1.092,19.9608,,
AsF,2.2827397832654333,dft,jarvis_3d,,5.7137,10.1582,,
BrSSb,0.008713433090056979,dft,jarvis_3d,,0.218,352.1767,,
FFeLi,4.27471355937349,dft,jarvis_3d,,0.8762,70.3919,,
F4NaNi,0.8105722729013333,dft,jarvis_3d,,0.4529,78.601,,
F2NaSc,3.054491261722683,dft,jarvis_3d,,0.5311,165.2333,,
F2NaTe,3.642482908090897,dft,jarvis_3d,,2.8774,20.1259,,
F2NaY,0.8301949842777355,dft,jarvis_3d,,0.4942,57.5087,,
F3RbRh,1.8596741310498426,dft,jarvis_3d,,1.3013,17.9579,,
H2MgSr,8.589951127511531,dft,jarvis_3d,,2.3589,52.3524,,
H3MgTc,7.406129520371999e-14,dft,jarvis_3d,,0.1242,314.963,,
HOTa,1.5049922318848823,dft,jarvis_3d,,4.1287,7.2803,,
HOTa,7.8119074868792255,dft,jarvis_3d,,1.291,76.0769,,
AlF3Na,0.033969102699229155,dft,jarvis_3d,,0.3195,22.3013,,
AlF2Ni,1.5781833414196764,dft,jarvis_3d,,0.6511,47.8276,,
AlF3Rb,7.715039090926923e-46,dft,jarvis_3d,,0.1008,236.1845,,
C2Li2,21.873319805447753,dft,jarvis_3d,,0.9031,342.5165,,
LiP,6.920921577586047,dft,jarvis_3d,,2.7658,38.9309,,
Li2P,4.447719001166216e-06,dft,jarvis_3d,,0.1599,405.9728,,
LiP2,11.798874362252183,dft,jarvis_3d,,1.7732,86.387,,
LiP2,3.9725547375765884,dft,jarvis_3d,,0.6194,136.7677,,
MgNbO,5.690893166778168,dft,jarvis_3d,,0.9047,88.8573,,
MgNbO2,3.0480685094122513,dft,jarvis_3d,,3.1375,16.2359,,
AlO2Sc,4.3853370629772614,dft,jarvis_3d,,0.6441,136.5246,,
AlO3Te,0.7922050468100049,dft,jarvis_3d,,18.2723,3.0436,,
AlO4Te,0.09671027618986877,dft,jarvis_3d,,0.2953,117.1972,,
MgTe2,3.7936546447769297,dft,jarvis_3d,,1.0749,45.9651,,
AgF2,0.6939255059382906,dft,jarvis_3d,,0.4339,80.7103,,
NaO2Si,2.845889322674599,dft,jarvis_3d,,0.773,58.9679,,
NaO2Si,0.07465440216954847,dft,jarvis_3d,,0.3247,43.6776,,
NaO2Sr,1.1170259650623844e-22,dft,jarvis_3d,,0.1116,229.1252,,
NaO2Ti,5.156721444505691,dft,jarvis_3d,,4.7157,24.0251,,
NaO2Ti,5.209349693316769,dft,jarvis_3d,,2.3773,31.6146,,
NbO2P,7.741212360996988,dft,jarvis_3d,,1.9845,52.3599,,
NbOP,2.651044204593571,dft,jarvis_3d,,4.5827,12.4461,,
AsOSb,3.7804796436462493,dft,jarvis_3d,,2.8237,21.0652,,
NbO3Pb,3.0037357291497333,dft,jarvis_3d,,0.9444,43.8087,,
Ba2CuTe,0.017591894715385577,dft,jarvis_3d,,0.2581,77.1218,,
As3Pd3Ti3,1.6948388762655147,dft,jarvis_3d,,0.4487,170.8062,,
B2S2,2.9076087058953943,dft,jarvis_3d,,0.4037,472.4547,,
BaMgO,1.959684987247037,dft,jarvis_3d,,1.7443,14.5273,,
BaNbO3,0.000220135403282817,dft,jarvis_3d,,0.1821,333.8267,,
BaNbO2,0.09121767163367756,dft,jarvis_3d,,0.2949,111.8024,,
CCaO3,7.781567470850573,dft,jarvis_3d,,3.1512,41.3767,,
CF2S,1.3861313612764725,dft,jarvis_3d,,5.543,6.2095,,
CF2Si,26.901336095164073,dft,jarvis_3d,,1.5724,216.8604,,
CMgO3,11.785364584109878,dft,jarvis_3d,,1.8542,83.5185,,
CaO3Sb,1.968584647156546,dft,jarvis_3d,,7.6385,8.2977,,
CuF2O,0.5051811915133557,dft,jarvis_3d,,0.4226,66.1167,,
F2GaN,5.189565875962858,dft,jarvis_3d,,2.2622,32.3794,,
F3GaNa,0.9675500604128761,dft,jarvis_3d,,0.538,50.201,,
F3GaRb,0.012524883091556105,dft,jarvis_3d,,0.2434,108.3504,,
FGeNa,5.82735403904755,dft,jarvis_3d,,2.5725,33.9405,,
GeO2V,6.2424455995874055,dft,jarvis_3d,,4.3166,29.8024,,
GeO3V,0.4405514109187744,dft,jarvis_3d,,0.3773,101.5644,,
HN2Ti,5.458700233990909,dft,jarvis_3d,,4.6989,25.456,,
Li2MnO2,2.587624467357922,dft,jarvis_3d,,0.4627,230.1157,,
NaNbO,5.581560533969464,dft,jarvis_3d,,1.2204,57.844,,
NaO,0.42805053374300234,dft,jarvis_3d,,0.4751,34.3333,,
NaO2,0.003351896011914329,dft,jarvis_3d,,0.2469,24.3812,,
Na3O,0.11858208923652172,dft,jarvis_3d,,0.2864,186.9992,,
NaPS,0.13725366295761138,dft,jarvis_3d,,0.3063,123.764,,
NaP2,2.349071407888657,dft,jarvis_3d,,2.9503,12.8382,,
NaSY,0.19975792702792222,dft,jarvis_3d,,0.4102,30.0444,,
NaS2,0.21866338827385204,dft,jarvis_3d,,0.4565,20.5291,,
B2Ca2N2,2.787327703970087,dft,jarvis_3d,,5.8772,12.3293,,
B2N2Zn,16.134558048547948,dft,jarvis_3d,,1.464,138.6133,,
Be2N,6.575244524930594,dft,jarvis_3d,,0.6421,206.3067,,
BeN2,7.874103090531951,dft,jarvis_3d,,2.369,47.8776,,
FMgNa,3.0889196224030213,dft,jarvis_3d,,2.3177,19.0102,,
F2MgNa,3.28765575662721,dft,jarvis_3d,,0.7697,68.7028,,
F2NbO,4.561960366567341,dft,jarvis_3d,,2.0102,30.5965,,
FNbO,7.107634419111569,dft,jarvis_3d,,3.5667,36.0689,,
Al3F,4.368781150932134,dft,jarvis_3d,,0.5464,215.8139,,
KP,0.9624555969881432,dft,jarvis_3d,,0.5315,51.9366,,
NaO2Zn,0.9618183684920018,dft,jarvis_3d,,0.5686,42.0792,,
NaSSc,5.072945152684159,dft,jarvis_3d,,1.7274,37.8878,,
Cl2Nb,2.7567063759425077,dft,jarvis_3d,,0.8839,44.7302,,
Cl2Nb,5.8476789237124915,dft,jarvis_3d,,1.5445,47.8752,,
NbOP,7.402409720825493,dft,jarvis_3d,,0.7161,179.8242,,
NbO3Pb,2.4874826083038286,dft,jarvis_3d,,0.5263,138.6314,,
BaCl2Cu,0.7003130156464915,dft,jarvis_3d,,0.7986,13.6216,,
BaGaH,1.2197137472300188,dft,jarvis_3d,,0.7155,29.6844,,
BaInO3,0.008609903124914813,dft,jarvis_3d,,0.2233,240.3506,,
AsO,5.4314062211265,dft,jarvis_3d,,6.4555,23.578,,
BeMgN,10.231636551578523,dft,jarvis_3d,,0.9539,146.947,,
BeNaO2,6.301406588651973,dft,jarvis_3d,,0.7863,126.2746,,
AsCa,1.764743396463423,dft,jarvis_3d,,0.7846,35.5128,,
AsCa2,0.73291090886106,dft,jarvis_3d,,0.4653,63.7459,,
CaHfO2,6.556827456344322,dft,jarvis_3d,,2.2384,41.1605,,
CaOP,3.1797452776032364,dft,jarvis_3d,,0.7511,69.8184,,
CaO3P,8.350617696268936,dft,jarvis_3d,,1.681,63.7102,,
ClOOs,7.207148652141883,dft,jarvis_3d,,1.4001,64.6023,,
CuLi3P2,4.810161375596043,dft,jarvis_3d,,2.086,31.507,,
Ge2Li2O2,5.5229086548641,dft,jarvis_3d,,1.4796,46.9864,,
H3MgRu,14.350183786147774,dft,jarvis_3d,,1.058,177.5959,,
InMgO3,0.0002849720243747226,dft,jarvis_3d,,0.1859,259.0475,,
AlS3Y,1.1488644956080588e-07,dft,jarvis_3d,,0.1537,54.7331,,
N3OZr2,5.482111107510385,dft,jarvis_3d,,1.2449,55.5526,,
AlCo2Si2,5.386984745151608e-07,dft,jarvis_3d,,0.1525,366.9404,,
CCo3Sc,0.21469226435541489,dft,jarvis_3d,,0.2948,263.8903,,
CInSc3,0.006430940886054819,dft,jarvis_3d,,0.2179,261.822,,
CRu3Zr,0.011056464647642235,dft,jarvis_3d,,0.2258,261.8157,,
Be2Hf2Si2,4.4210729641889804e-14,dft,jarvis_3d,,0.1236,347.6925,,
BeTi,1.0742697150941771,dft,jarvis_3d,,0.3731,263.4131,,
N4Sc2Ta2,1.2099071733717858e-05,dft,jarvis_3d,,0.163,536.8378,,
Mo2N4Zn2,1.6471014631124305e-10,dft,jarvis_3d,,0.1335,439.4642,,
Co2O4,1.0754218659604184,dft,jarvis_3d,,0.3469,405.4157,,
NbO4Rh,0.8619356624184562,dft,jarvis_3d,,1.5693,6.9601,,
B2C2Sc2,3.6588307863406547e-06,dft,jarvis_3d,,0.157,696.4625,,
Be4FeGe,0.0004222372392879207,dft,jarvis_3d,,0.1859,383.8254,,
C2TiZr,0.15758056936145132,dft,jarvis_3d,,0.262,588.1751,,
B2MoTi,0.00489828968889706,dft,jarvis_3d,,0.2063,504.8532,,
Al6NbTa,2.505817817587131e-05,dft,jarvis_3d,,0.1695,293.9243,,
Fe2O4,4.836609114984294,dft,jarvis_3d,,0.4541,463.9441,,
B4HfTi,1.0986276493101989e-46,dft,jarvis_3d,,0.1005,682.0983,,
NNbO2Sr,7.223940133137221,dft,jarvis_3d,,6.0432,31.7703,,
Al2H2O2,0.9462758746600356,dft,jarvis_3d,,0.3754,224.2743,,
B2O,4.23817576129493,dft,jarvis_3d,,0.9688,59.4571,,
MgN2Si,3.7342706661468332,dft,jarvis_3d,,1.2521,37.599,,
MgN2Si2,1.201259000578367,dft,jarvis_3d,,0.4388,133.0643,,
MgN2Sn,0.0003033037202153902,dft,jarvis_3d,,0.182,466.4498,,
BO2Y,6.9477236897377805,dft,jarvis_3d,,1.8939,48.5068,,
CaO2Zr,5.428260950866969,dft,jarvis_3d,,1.0442,68.3903,,
AlBN2,10.341352043564422,dft,jarvis_3d,,0.9481,149.9186,,
F2ZnZr,1.5026406257197573,dft,jarvis_3d,,0.4477,152.8529,,
B2Mg,32.685183166789905,dft,jarvis_3d,,0.6958,846.4661,,
B2O2S,15.928289059864907,dft,jarvis_3d,,2.1805,101.5436,,
HLi2,1.0759786240846054,dft,jarvis_3d,,0.3396,464.6756,,
MgO3V,0.9201926467010532,dft,jarvis_3d,,0.494,63.8363,,
N2TiZn,0.000468940882478158,dft,jarvis_3d,,0.1866,389.6329,,
O3SiY,7.358461370359416,dft,jarvis_3d,,0.6081,266.1241,,
N2Nb10Si6,2.014305592213476,dft,jarvis_3d,,0.4148,287.3707,,
CdO2,2.463250535267934,dft,jarvis_3d,,1.5459,20.1508,,
FInNa,4.058060110059694,dft,jarvis_3d,,1.8103,29.2598,,
F2InO,2.533147691226592,dft,jarvis_3d,,1.0936,30.0059,,
LaN,0.07339010333306677,dft,jarvis_3d,,0.2749,168.8609,,
AlNbO3,4.337209708200645,dft,jarvis_3d,,1.7542,32.0141,,
F2Li,3.967518647342933e-07,dft,jarvis_3d,,0.1553,119.7611,,
AlNi,1.157274644585665e-05,dft,jarvis_3d,,0.1658,281.5274,,
AlCo,2.1580161677259384e-34,dft,jarvis_3d,,0.1043,352.7599,,
BaO3V,2.8968116419628073e-09,dft,jarvis_3d,,0.1388,403.7069,,
AlN2Zr,8.057239557575162,dft,jarvis_3d,,3.2733,42.2052,,
MnV,3.7704590093421135,dft,jarvis_3d,,0.4641,331.3063,,
TcV,2.699653960675206,dft,jarvis_3d,,0.4321,319.7872,,
Mo3O8Sc,2.6357590271540086,dft,jarvis_3d,,0.427,329.1596,,
FMgRb,2.3372429996398876,dft,jarvis_3d,,1.5754,18.8106,,
CMo,0.0020103411623374275,dft,jarvis_3d,,0.196,560.2538,,
BeCu,0.377597364492542,dft,jarvis_3d,,0.3039,362.2293,,
AlCo,2.1580632726391995e-34,dft,jarvis_3d,,0.1043,352.7676,,
FeTi,0.25712080634256446,dft,jarvis_3d,,0.2961,304.638,,
MnV,4.015618644903975,dft,jarvis_3d,,0.4729,327.8793,,
B6Sr,0.004504122233221911,dft,jarvis_3d,,0.2025,656.0261,,
Co4Si4,0.0001284108464174317,dft,jarvis_3d,,0.1779,360.8863,,
RuSi2,0.1716337539624654,dft,jarvis_3d,,0.2884,254.5823,,
TcV,2.692059031287939,dft,jarvis_3d,,0.4318,319.8663,,
B2Nb2,0.020877059787950424,dft,jarvis_3d,,0.227,457.7928,,
NNb,8.314594492145927e-27,dft,jarvis_3d,,0.1081,572.4291,,
CaSi2,0.01088671517173449,dft,jarvis_3d,,0.224,290.0445,,
N2Nb2,0.022210178576883673,dft,jarvis_3d,,0.2284,446.004,,
CZr,0.5825604619755342,dft,jarvis_3d,,0.3031,570.6784,,
PSc,4.5257480313938074e-07,dft,jarvis_3d,,0.1502,636.4478,,
NSc,20.78032741418409,dft,jarvis_3d,,0.7151,506.3535,,
S2Si2Zr2,6.616007888632035e-06,dft,jarvis_3d,,0.1621,359.6427,,
AlCSc3,0.003222536560573979,dft,jarvis_3d,,0.2068,317.8941,,
AlFe2V,0.000948569491057353,dft,jarvis_3d,,0.1929,370.7565,,
Mo2Ni2P4,0.21601348480362234,dft,jarvis_3d,,0.2907,299.0724,,
CGaSc3,0.11483872678453738,dft,jarvis_3d,,0.2821,207.4728,,
P4W2,0.006727273927935202,dft,jarvis_3d,,0.2157,322.379,,
O3TiY,3.5542358318353946,dft,jarvis_3d,,0.8827,57.8025,,
AlO3Ti,0.8815939060788894,dft,jarvis_3d,,2.0504,5.8377,,
CSc3Sn,0.00032051527404607463,dft,jarvis_3d,,0.1865,269.7297,,
B4Li4,5.623322989064915e-14,dft,jarvis_3d,,0.1237,398.5711,,
Fe2Li2P2,0.0009064850627949065,dft,jarvis_3d,,0.1932,342.5934,,
C2In2Ti4,0.06303445300287229,dft,jarvis_3d,,0.2601,254.2243,,
CHf,0.041615040722846885,dft,jarvis_3d,,0.2444,342.3319,,
InNSc3,8.271418670409777e-07,dft,jarvis_3d,,0.1543,331.2006,,
CTi,1.780454042509233,dft,jarvis_3d,,0.3436,713.0408,,
BeNi,2.378645661736494e-08,dft,jarvis_3d,,0.1435,393.5437,,
Al3Ni2,1.1965317400160609e-08,dft,jarvis_3d,,0.1422,343.546,,
BBe2,8.799682323363278,dft,jarvis_3d,,0.4734,715.5853,,
AlNi,1.1572672453259118e-05,dft,jarvis_3d,,0.1658,281.5256,,
Si4Zr2,0.06044418925589881,dft,jarvis_3d,,0.2527,335.3274,,
B6Ca,0.020046235078782906,dft,jarvis_3d,,0.2212,645.6735,,
B6Ba,2.179076801468395e-09,dft,jarvis_3d,,0.1376,559.5442,,
B4Ru2,1.5117477656277685,dft,jarvis_3d,,0.3731,370.6836,,
CTa,15.2291287282242,dft,jarvis_3d,,1.0124,200.3412,,
B2Ta2,0.019736796597450944,dft,jarvis_3d,,0.2285,393.8795,,
B2Ta,17.191563713858148,dft,jarvis_3d,,0.8841,278.8438,,
B2Ti,1.967167202170409e-12,dft,jarvis_3d,,0.127,616.8448,,
P12Rh4,3.2552290200596287e-16,dft,jarvis_3d,,0.1194,379.8369,,
Al12Mn2,0.3339404518706003,dft,jarvis_3d,,0.308,288.4391,,
B2Hf,4.3072742070420785e-14,dft,jarvis_3d,,0.1231,575.0476,,
Be5Hf,1.0941368033076113,dft,jarvis_3d,,0.3604,327.0593,,
B2Hf,4.3072719599545985e-14,dft,jarvis_3d,,0.1231,575.0473,,
Be5Hf,1.094262254961559,dft,jarvis_3d,,0.3604,327.0968,,
C5Nb6,2.1597744088788056,dft,jarvis_3d,,0.3924,404.59,,
B6Co2V2,0.016720420247583603,dft,jarvis_3d,,0.2237,454.4437,,
Be8Mn4,0.8801073263036442,dft,jarvis_3d,,0.3446,346.0105,,
NV,5.39234807143952e-43,dft,jarvis_3d,,0.1014,638.4238,,
STi,1.2450938142771228e-09,dft,jarvis_3d,,0.1372,394.6552,,
B6Zr,0.001452713578339826,dft,jarvis_3d,,0.1983,318.9498,,
BTc,2.461317664189638,dft,jarvis_3d,,0.398,429.1315,,
H2Mg,10.280686768254558,dft,jarvis_3d,,9.0856,42.2429,,
AgKO,0.4308844075397167,dft,jarvis_3d,,0.7197,10.3537,,
Cr6N8,9.760679581429539,dft,jarvis_3d,,1.6601,75.217,,
CdO3Ti,1.5558615773860034,dft,jarvis_3d,,0.8443,27.3222,,
O3SiZn,3.2212165780042166,dft,jarvis_3d,,3.275,16.8699,,
CdGeO3,0.7713008517957983,dft,jarvis_3d,,2.1347,4.9805,,
GeO3Zn,0.011805755975639882,dft,jarvis_3d,,0.239,128.4734,,
GeO3Sr,3.6509547916451805e-20,dft,jarvis_3d,,0.1142,224.0838,,
N6Re2Ti2,20.03643206071191,dft,jarvis_3d,,0.8869,323.2724,,
Cu2Mg2O4,0.004439476916398091,dft,jarvis_3d,,0.2103,325.5254,,
NTi,1.6408139064643406,dft,jarvis_3d,,0.3611,484.9117,,
CoFeGaTi,2.3750716909438456e-11,dft,jarvis_3d,,0.1311,309.3759,,
N4W2,5.913886570568911,dft,jarvis_3d,,2.408,35.6426,,
BO3Sn,2.323825907022937,dft,jarvis_3d,,1.3822,21.095,,
AlRu2V,0.30448128663548557,dft,jarvis_3d,,0.3057,278.8021,,
BeCo2Ti,7.310005409788749e-10,dft,jarvis_3d,,0.1364,356.898,,