formula,Tc,tc_source,dataset,pressure_gpa,lambda,wlog,debye_temp,dos_ef
Al4ScV2,0.02,dft,jarvis_alex,,0.2537960924733248,304.7054442145178,582.6182861328125,3.9133017
S2ScY,0.0,dft,jarvis_alex,,0.1992079588883604,278.51419510370374,418.3153381347656,0.84754163
LaSi2,8.552,dft,jarvis_alex,,0.7425734977716549,204.7390694489308,325.0208435058594,2.804773
CrMo6Re,6.783,dft,jarvis_alex,,0.6454786014365109,233.25869519963013,427.1484680175781,6.3109875
Mg2Rh3Sc,0.0,dft,jarvis_alex,,0.1359656266039715,205.9959235951888,381.5019836425781,2.4502873
Co2P2Y2,2.216,dft,jarvis_alex,,0.4685925169795513,234.28320020312307,419.8107299804688,5.0060906
Re2TiV,0.021,dft,jarvis_alex,,0.2562201867132273,270.2580264590316,366.1247253417969,2.4349132
ScTc4Zr,16.286,dft,jarvis_alex,,1.4705000947637037,128.79141524115576,342.9136657714844,8.476962
Be2TiZr,0.085,dft,jarvis_alex,,0.2923395096372914,227.40949838340572,560.6038818359375,1.1515496
Ca2HgPb,0.003,dft,jarvis_alex,,0.2409595450036295,100.7716845917288,186.2615203857422,0.0044913
HfNbRe2,0.016,dft,jarvis_alex,,0.2566034765497666,210.65826663943056,337.6436462402344,2.8118453
Ga2Sc2Ti2,2.965,dft,jarvis_alex,,0.5198804844148744,205.17339265986865,410.1833190917969,5.800474
MgTiZr2,2.181,dft,jarvis_alex,,0.4859859213438104,197.22787108748457,324.1741027832031,3.3865175
Be2CoNi,0.0,dft,jarvis_alex,,0.1498449626863874,353.31188582282147,621.60693359375,2.5370471
H3NaRh,0.0,dft,jarvis_alex,,0.1349285120924349,957.4724321980348,485.5774841308594,0.80096287
HfSc3Zn2,2.075,dft,jarvis_alex,,0.5232006340724966,139.83217246824003,325.9216613769531,7.0346074
Ga2Ti6,5.877,dft,jarvis_alex,,0.6040375812376179,245.0839495645824,404.98681640625,10.561322
LiPd2Zn,0.0,dft,jarvis_alex,,0.1169641977338186,182.29255679475847,294.6786193847656,0.8866815
NbReTcTi,0.069,dft,jarvis_alex,,0.2833209811385773,259.0316124149916,406.3944091796875,1.5350057
Al2OsPt,0.0,dft,jarvis_alex,,0.1217190371235956,236.54223259934807,381.3024597167969,0.6463293
Li2MgZn,1.378,dft,jarvis_alex,,0.4533095714483171,168.9411054853891,251.6962432861328,1.5483389
P2ScY,0.0,dft,jarvis_alex,,0.1167755555104797,348.45616485762474,477.6270751953125,0.53567076
NiRh6Tc,1.163,dft,jarvis_alex,,0.4058559064938109,251.6081070304824,483.25885009765625,8.235837
MgRh3Zn2,0.024,dft,jarvis_alex,,0.2695244390051642,159.97437799721337,355.6117858886719,5.370778
Rh6TcZn,1.266,dft,jarvis_alex,,0.417438319330522,234.9872171691381,451.0123596191406,8.0301485
CuMgPd2,0.0,dft,jarvis_alex,,0.0962838529327559,160.095024661432,312.8868713378906,0.9012455
CrPtTi2,0.006,dft,jarvis_alex,,0.2381587478579382,258.7198120917296,367.6319274902344,0.96991795
AlTaZn2,0.0,dft,jarvis_alex,,0.1580556079314099,228.2880452425084,376.4169616699219,0.98633945
NbSbTi2,0.359,dft,jarvis_alex,,0.3399124543783546,247.9862210321996,373.2247009277344,2.979535
HfRh2Sc,0.943,dft,jarvis_alex,,0.4218132505868741,165.35739240178577,294.2311706542969,3.2076185
Rh7Sc,0.782,dft,jarvis_alex,,0.3833586584506891,236.5368985665885,418.3984680175781,6.864519
CZnZr2,0.086,dft,jarvis_alex,,0.2924311223744337,229.42131601199,497.35003662109375,1.2455913
Be6Co2,5.295,dft,jarvis_alex,,0.6118625745501475,210.86460867733425,767.670166015625,2.7763677
AlHfZr2,1.743,dft,jarvis_alex,,0.468703889685429,184.21713282688967,330.302490234375,3.4472206
Li3Mg,0.268,dft,jarvis_alex,,0.3362335987888876,201.5406702928752,345.2557678222656,1.888941
AlBe4Ru,1.409,dft,jarvis_alex,,0.3812978247090149,439.5455233131065,804.2239379882812,3.64196
PdSc2Zn,0.794,dft,jarvis_alex,,0.4247153711113942,134.16522163014247,320.4608764648437,2.8194454
La2NO,0.767,dft,jarvis_alex,,0.3699454273588148,290.3846642680666,405.7237243652344,1.3618782
IrNV3,7.097,dft,jarvis_alex,,0.7751888522159165,153.79820858641955,453.5417175292969,3.921593
PtRh2Ru,0.95,dft,jarvis_alex,,0.3942858108197653,242.4350876180728,409.6929321289063,5.036478
MoRhZr2,0.1,dft,jarvis_alex,,0.2979263127996072,219.65021291373563,341.2000427246094,5.4014235
InLiOY2,0.0,dft,jarvis_alex,,0.1811612152052271,221.4688239725702,371.4966735839844,1.3829755
Cu6GaLi,0.0,dft,jarvis_alex,,0.1670332570345153,222.81672709246087,329.645263671875,0.70098907
CTi3Zn,0.059,dft,jarvis_alex,,0.278816941356379,266.2194716688883,528.7459106445312,3.612957
GaLu3N,0.008,dft,jarvis_alex,,0.2491594697654811,156.87654220329344,328.3040466308594,2.1349933
RuScTaTc,0.126,dft,jarvis_alex,,0.3031198203138344,233.9223177796571,385.7423095703125,2.6557846
AgTi2W,1.752,dft,jarvis_alex,,0.4567372802262852,207.844149632462,333.1086730957031,4.4178023
Tc2WZr,0.089,dft,jarvis_alex,,0.2934206740088046,227.3179916800828,387.3294677734375,1.495957
As2Si2Ti2,0.875,dft,jarvis_alex,,0.381607384073766,271.7936062218016,527.7235717773438,2.2675195
Nb2TaZn,1.759,dft,jarvis_alex,,0.4642382780336818,193.94115993722,314.6959228515625,2.494356
N2TeZr2,0.015,dft,jarvis_alex,,0.246381500373643,351.1147637196561,343.0887451171875,0.61006
Ru2TaZr,9.906,dft,jarvis_alex,,0.9304168846136778,151.11654408884908,363.3450622558594,3.2386515
C4Ti3W,13.159,dft,jarvis_alex,,0.8412804322183937,239.8666890574423,760.675048828125,2.319801
Mo2N,7.659,dft,jarvis_alex,,0.62236128698708,290.9959922049336,581.6717529296875,1.750102
GeMnV6,3.791,dft,jarvis_alex,,0.4988605458042331,308.4642221975269,459.9988403320313,5.4447675
MnTcTiW,0.0,dft,jarvis_alex,,0.2012388274361449,293.38230155946417,436.7587585449219,2.0504422
GaLiRhSn,1.926,dft,jarvis_alex,,0.527802264555484,125.61528452473958,309.2059631347656,0.79099065
NbRe2Ti,0.019,dft,jarvis_alex,,0.2561600785611324,247.34357192305336,343.74755859375,2.9692004
OsV5,2.626,dft,jarvis_alex,,0.4625189381725366,294.56810899649366,392.3199768066406,6.40031
Al2CuNb,0.0,dft,jarvis_alex,,0.1657444291181221,274.7874646493639,486.9178161621094,1.0921865
GeLiNiRh,0.0,dft,jarvis_alex,,0.192320872586974,203.726691847346,400.9234619140625,2.3238273
Al3NiOs2,0.531,dft,jarvis_alex,,0.3777245498459395,175.52685311234455,439.1734313964844,4.250922
MoNi2Pt,0.137,dft,jarvis_alex,,0.3059850681758102,232.49044017629703,381.21435546875,3.1556463
BeMgPt2,0.0,dft,jarvis_alex,,0.1981631137366514,197.3305140264165,339.77276611328125,1.2185224
AlCrOs,0.008,dft,jarvis_alex,,0.2403347047589726,280.59311395221584,450.365966796875,2.2118454
TiW3,0.612,dft,jarvis_alex,,0.3727796586964464,220.3321358899324,363.8595275878906,3.5259914
NbPtTi2,3.217,dft,jarvis_alex,,0.5508556968134519,180.25720694270373,306.7460632324219,2.7689178
Al2Ni4Si2,0.0,dft,jarvis_alex,,0.1681851821846997,311.7322117063968,477.3232421875,2.305387
CoSi2Y,0.11,dft,jarvis_alex,,0.2958164937597105,259.78797445684245,462.3391418457031,2.0734963
OsTcTi2,0.133,dft,jarvis_alex,,0.2996089676799837,277.2976310201229,409.8216247558594,3.1224225
HPd2Pt,1.84,dft,jarvis_alex,,0.4584703209306946,214.0555905108289,301.6161804199219,5.7865715
Ru6W2,5.603,dft,jarvis_alex,,0.6096163032020866,227.27107045493105,466.1148986816406,10.999246
NbTc2W,8.367,dft,jarvis_alex,,0.7162916988618815,219.93330591990485,413.0788269042969,5.2486734
BeCLu,1.06,dft,jarvis_alex,,0.3735948234678293,376.0280465666675,602.1448974609375,1.2443287
MgRu2W,0.0,dft,jarvis_alex,,0.1215876312284156,245.37461929632155,385.3453063964844,0.41264868
B2C2Sc2,0.0,dft,jarvis_alex,,0.1866910011153643,673.2043813197904,1028.388671875,0.56314003
NbSbTc2,0.301,dft,jarvis_alex,,0.3400947728397365,207.40393870244543,401.5171813964844,0.6758954
Rh4Si4,0.0,dft,jarvis_alex,,0.1785537403271145,261.8424282248572,447.9259338378906,2.1128592
CoHTcTi2,0.302,dft,jarvis_alex,,0.3257452806193666,293.1531003993836,499.8882446289063,2.235563
BeCo2Ti,0.0,dft,jarvis_alex,,0.1059729137015399,330.5080225663703,579.8106689453125,0.6503562
AlOsRuV,0.001,dft,jarvis_alex,,0.2127905956604275,268.41749335038105,472.3011474609375,0.9623102
Re2Zn2,0.574,dft,jarvis_alex,,0.3760031552217644,195.8361278739349,371.2915649414063,2.3825731
Be6Ni2,7.851,dft,jarvis_alex,,0.6265188394067391,291.9368089784214,709.3072509765625,2.1653452
NbRe2Ti,0.036,dft,jarvis_alex,,0.2690429183694066,245.0210696901956,386.9199523925781,2.260168
TiZnZr2,7.721,dft,jarvis_alex,,0.7955538228246988,159.20812876814338,327.5979309082031,4.792377
HfRhTcTi,0.0,dft,jarvis_alex,,0.157960554959491,249.28772951574928,391.2637023925781,1.9914178
CoNiV6,5.077,dft,jarvis_alex,,0.5467835434077789,293.04771582145463,549.7027587890625,7.1716814
Rh6Sn2,0.338,dft,jarvis_alex,,0.3491261871708333,191.34454070332143,347.9743347167969,7.6858916
MnNbReTa,0.001,dft,jarvis_alex,,0.2097466701255992,267.39070125786543,330.311767578125,2.6396554
Ru2TiZr,0.0,dft,jarvis_alex,,0.181265967679332,266.3908562800403,432.7333984375,1.65718
Be2Mn6,2.127,dft,jarvis_alex,,0.4264879826229393,352.7121824235986,555.1323852539062,8.6899605
NbOsRuZn,0.455,dft,jarvis_alex,,0.3660060494200833,184.8938193739278,365.5123596191406,3.1277902
BeCo2Ru,0.154,dft,jarvis_alex,,0.3013664455913896,301.44966700663565,576.92431640625,1.6944082
Be2CoNi,0.0,dft,jarvis_alex,,0.127465518964409,366.34150002655326,620.4583740234375,1.8287697
NRuV2,6.578,dft,jarvis_alex,,0.6004052762470251,278.1560744848834,587.79736328125,3.411478
AlCdScY,0.002,dft,jarvis_alex,,0.2319610126544898,155.00788671487535,325.5843811035156,3.670113
AgH3Pt,16.397,dft,jarvis_alex,,1.2073166711007717,166.11135183612362,296.1980285644531,0.60259634
MoOsSi,1.63,dft,jarvis_alex,,0.4271411105751337,267.8988062490752,461.97412109375,1.4691169
HScSn,0.318,dft,jarvis_alex,,0.3543037730505413,161.60035245981084,381.8461608886719,0.6520207
OSc3Sn,11.783,dft,jarvis_alex,,0.9979194695061732,157.6356273191332,468.2817687988281,5.7488184
HNb2,0.954,dft,jarvis_alex,,0.3985590018404547,227.9958475061279,435.9129333496094,1.9348463
Co2Hf2Si2,0.009,dft,jarvis_alex,,0.2442432989338399,240.13382781228609,421.4998168945313,5.230932
GaInRh2,0.036,dft,jarvis_alex,,0.2829715031061088,137.5758124992491,334.2827453613281,1.0627588
GaHTi2Zr,4.069,dft,jarvis_alex,,0.5418308649467726,241.5209347507276,389.6911315917969,3.3821666
Mo2Rh2,1.19,dft,jarvis_alex,,0.4081887588779395,249.3813628141016,464.4916076660156,2.2980294
Mo7Ta,0.457,dft,jarvis_alex,,0.3486881291516138,261.07377743522005,386.4688720703125,5.6236343
NiRu2Si,0.057,dft,jarvis_alex,,0.2785833990510127,255.99476091429,485.8799133300781,2.3323598
CRu3Sc,0.682,dft,jarvis_alex,,0.3750420570451273,236.0534326592633,549.8281860351562,3.2119977
CGeLu3,0.156,dft,jarvis_alex,,0.3353374161122516,119.22668831971076,319.8916931152344,2.2382565
H5Pd4Pt,23.621,dft,jarvis_alex,,1.931337015613301,136.34386215374133,306.4530334472656,3.0098777
Al2OsRu,0.854,dft,jarvis_alex,,0.403516184905226,190.44535044279905,447.7352294921875,3.0015812
Al4HfZr,0.0,dft,jarvis_alex,,0.1972756888089209,242.98291014560527,485.2779846191406,2.7849803
CoFeNbZn,0.0,dft,jarvis_alex,,0.125564682136593,266.88767699005524,424.6729431152344,0.70691544
Nb2OsPt,7.188,dft,jarvis_alex,,0.7636899318608604,162.19725967553856,358.2344665527344,3.628634
Rh2Si,0.825,dft,jarvis_alex,,0.408973662184601,170.6401839405675,434.0291442871094,2.3930223
NbNi2Ru,0.006,dft,jarvis_alex,,0.2378288287364379,249.4435491768522,450.0857849121094,5.01529
C2HfZr,0.0,dft,jarvis_alex,,0.1535570084885237,414.7160930754169,536.463623046875,0.8916126
AlGePt,1.213,dft,jarvis_alex,,0.4453108210442781,161.8827735957373,267.2786865234375,1.1262411
Co2HRuTa,0.001,dft,jarvis_alex,,0.215208619992977,306.0583816341625,448.4712219238281,2.951042
Mo2W2,0.794,dft,jarvis_alex,,0.3811452506105024,248.5565303722313,389.8479614257813,2.457692
CaLi,0.0,dft,jarvis_alex,,0.1816732679773105,214.64944698285552,232.4374542236328,1.5486965
CuLiSb,0.056,dft,jarvis_alex,,0.2850283317146454,195.4196507467649,282.1974182128906,1.7791734
Zr,12.171,dft,jarvis_alex,,1.1002786126317057,141.75550448889834,249.40460205078125,1.4283737
As2C2V4,1.479,dft,jarvis_alex,,0.3978460837391179,357.55065655818186,607.221435546875,4.7890463
MnRuV2,7.755,dft,jarvis_alex,,0.6478230301451199,264.20948556573,471.93212890625,3.351826
BeReTi2,1.363,dft,jarvis_alex,,0.4090298362220075,281.8291459870701,447.8075866699219,3.250966
Al2NbTi,3.864,dft,jarvis_alex,,0.609613311080124,155.7775310728636,557.136962890625,2.8194416
Cr2ReW,8.65,dft,jarvis_alex,,0.6876517219511178,251.21610569958625,385.6798400878906,4.651044
Ru2ScW,8.26,dft,jarvis_alex,,0.7664048798162634,185.52581680883125,394.8611450195313,4.0273013
LiNi2P2Y,1.392,dft,jarvis_alex,,0.4322915979931266,214.96225460767212,443.8392028808594,3.6426618
PtRhZn2,0.0,dft,jarvis_alex,,0.1029183169545284,158.80434357791324,310.9378356933594,1.2100606
Cr2N2Ta2,0.502,dft,jarvis_alex,,0.3437660700308139,318.2306017218933,536.9898071289062,2.225023
AuMg2Rh,0.0,dft,jarvis_alex,,0.1467983647329417,166.5993362829434,260.6521301269531,1.1679344
MoNb3Ru2,12.663,dft,jarvis_alex,,1.091145451693606,149.01169104582615,392.7514953613281,4.65802
HfMoTc2,0.511,dft,jarvis_alex,,0.3595901825714647,234.39851814526807,364.3540954589844,1.5638285
GaRu2Zr,0.176,dft,jarvis_alex,,0.3193608312043247,202.73328676950976,405.964599609375,3.0617814
BeLiPd2,0.0,dft,jarvis_alex,,0.1756148577731696,249.3582561385314,380.1907348632813,0.5523005
Al2Si2Y,0.012,dft,jarvis_alex,,0.2482150314773563,256.1828649090525,423.6808471679688,2.4592519
Pt2Rh,1.01,dft,jarvis_alex,,0.4260541405490063,168.14938067464618,305.4474792480469,5.181656
C2Mg2Y4,1.232,dft,jarvis_alex,,0.4349170527539776,184.3527295811051,314.7364501953125,6.779638
MgPt2Zn,0.014,dft,jarvis_alex,,0.2687985489381209,96.21776389504872,286.39483642578125,0.87856835
MoReTiV,0.535,dft,jarvis_alex,,0.3558391021700162,263.9933305626918,384.8481750488281,3.090657
Ca2Ge2Zn2,0.89,dft,jarvis_alex,,0.4290072941088107,142.9411353125032,346.7748718261719,2.1585808
Ga2Ni,0.51,dft,jarvis_alex,,0.3747749450108678,177.62252907636895,372.2433776855469,1.3255371
RhYZn4,0.0,dft,jarvis_alex,,0.0367681248755387,173.64040899079205,329.2955627441406,-0.0583068
Ni2Si2Y,0.104,dft,jarvis_alex,,0.2950272317444517,250.98248486895216,474.2035217285156,3.1661942
Al4La2,4.209,dft,jarvis_alex,,0.6463783945144298,143.441124248374,339.3055725097656,5.5866723
Nb2ReTa,0.105,dft,jarvis_alex,,0.2995496462772395,218.6633570037792,311.4809875488281,1.9578478
B2Be2V2,0.0,dft,jarvis_alex,,0.1811549146760214,520.849462217275,1059.3243408203125,1.7869312
Al2NiPd,0.099,dft,jarvis_alex,,0.3004360517625161,199.7239647820063,448.9771423339844,2.2300048
Al2Sc4,0.622,dft,jarvis_alex,,0.3757774875987655,212.817510038614,431.083740234375,6.1471777
Al2Pt2Zn4,0.037,dft,jarvis_alex,,0.2794463404410162,162.3556096742373,302.9048156738281,1.2171022
GaRu2Zr,0.036,dft,jarvis_alex,,0.2737399477166816,201.6150373104706,396.0866394042969,2.2173474
Mo2ReTa,0.485,dft,jarvis_alex,,0.3542593950492509,247.0545926527753,369.1589965820313,2.1782362
GaRh2Ta,0.917,dft,jarvis_alex,,0.4291975353183343,146.94366736350568,338.6985778808594,2.3354535
La2OScY,1.252,dft,jarvis_alex,,0.4683264978717819,132.58078282261877,281.9393920898437,4.9031324
Re2Si2,3.503,dft,jarvis_alex,,0.5459243607958713,202.4598750810722,479.7947082519531,2.319538
AgH2Y2,0.623,dft,jarvis_alex,,0.3958029694965673,154.99333279869396,317.8783264160156,2.2794232
AlY2Zn,0.153,dft,jarvis_alex,,0.3232643597954901,158.4719951191244,306.9164733886719,3.0850785
Nb2PdPt,1.269,dft,jarvis_alex,,0.4297848550787925,202.3193818747788,368.339599609375,3.8281975
Ga2RhTi3,3.979,dft,jarvis_alex,,0.5819666816973965,185.76143419101084,384.0317077636719,7.155443
MgRhZn2,0.184,dft,jarvis_alex,,0.3328515996087235,149.75004785090033,328.0735168457031,0.88128656
OsRh2,1.243,dft,jarvis_alex,,0.4137159578729606,242.08717136986493,446.4836120605469,2.1419795
CuNiScSn,0.248,dft,jarvis_alex,,0.3544239839042239,125.81278118390414,332.1158142089844,2.3747563
HfLiRh2,0.0,dft,jarvis_alex,,0.1795167680656341,175.40266541682183,294.41143798828125,1.9045812
GeNi6Sn,0.0,dft,jarvis_alex,,0.194616075858542,204.52387817633576,418.3581237792969,7.20482
BaSi6,3.173,dft,jarvis_alex,,0.5759863674557572,152.61922837890623,369.5168762207031,2.7266657
MnMoNb2,0.029,dft,jarvis_alex,,0.262967670501637,268.66891284889965,371.9015808105469,2.935685
MnTiW,0.0,dft,jarvis_alex,,0.206181432782831,295.493976458187,421.2131652832031,1.7507184
Cu6GaIn,0.025,dft,jarvis_alex,,0.2699189777417927,163.8274742692072,331.3899230957031,2.3420222
Ni2YZn,0.009,dft,jarvis_alex,,0.2522833522617153,154.1218945934324,308.0219116210937,2.1660223
Au2MgSc,0.473,dft,jarvis_alex,,0.4052574189687489,102.83560089180315,209.5133514404297,2.2196853
LiRu2V,17.979,dft,jarvis_alex,,1.835263045665676,110.98533370878742,436.88568115234375,6.2520556
Al2GaLu,0.114,dft,jarvis_alex,,0.3021804573009018,217.5789820961872,354.72442626953125,1.360214
CuRuSc2,0.02,dft,jarvis_alex,,0.2615404596890734,195.84234151511563,380.7012023925781,3.4418736
GePtRh,0.0,dft,jarvis_alex,,0.1517790572118282,174.90991239367312,304.1262512207031,0.8673512
Be4NbRh,13.017,dft,jarvis_alex,,0.756736175062246,298.37196760156263,651.48876953125,3.7659237
LuP2Ru2,0.348,dft,jarvis_alex,,0.3435827192477657,221.0169426223296,419.2110290527344,2.1971545
Cu2HNi2,0.0,dft,jarvis_alex,,0.1577403132679447,331.7885712661473,394.4428405761719,4.7046323
AlCuY2,1.428,dft,jarvis_alex,,0.5104821186880745,105.59364842772708,311.9586486816406,2.9437952
AlReTc,0.25,dft,jarvis_alex,,0.3285766296407775,225.76325237674249,459.6310729980469,1.4441853
HfLiRh2,0.041,dft,jarvis_alex,,0.2830562906842514,153.0235292574089,312.1490173339844,1.5820647
PbScZr2,0.51,dft,jarvis_alex,,0.3756402794910525,174.91296993434503,257.99224853515625,3.9360821
Be2HfTi,0.01,dft,jarvis_alex,,0.2465888594720857,221.85812411851413,438.6101989746094,0.9851023
NiTi2V,9.464,dft,jarvis_alex,,0.781665139803611,202.821664664396,353.7961730957031,4.4802017
CaSi2,0.008,dft,jarvis_alex,,0.2409750210984204,266.1083976239475,453.3256530761719,0.6060004
As2C2Zr4,3.382,dft,jarvis_alex,,0.4880920327262892,299.8474580154619,511.8642883300781,4.1914635
ReV3,1.622,dft,jarvis_alex,,0.4257095668857403,271.0544456192428,374.3126525878906,5.1591406
PRh5Zr,0.115,dft,jarvis_alex,,0.2999299608685971,237.09414670207147,414.1567687988281,4.3054237
Si2Ti2Zr2,1.654,dft,jarvis_alex,,0.4311778537254996,259.1663169507758,491.7138366699219,7.4053745
PSY2,0.027,dft,jarvis_alex,,0.2630929193010163,248.2324715503426,408.8450012207031,0.87524325
CGaScY2,0.126,dft,jarvis_alex,,0.3214464790993387,136.3493273813206,437.4522399902344,1.0268942
GaLa3N,1.451,dft,jarvis_alex,,0.507111570122426,110.05306646216876,296.6288452148437,2.792414
CNZr2,2.619,dft,jarvis_alex,,0.4239246422556227,447.0778808047734,618.1672973632812,1.8244963
HOs2RuTa,5.888,dft,jarvis_alex,,0.6312715852181774,214.2108621138765,387.03607177734375,4.8699565
Nb2ReRu,9.458,dft,jarvis_alex,,0.8051381453606019,191.056055013576,370.8536682128906,3.5083988
Ba3OSb,0.323,dft,jarvis_alex,,0.375282153015618,111.15483793763995,220.6819305419922,2.8107064
Ni5PSn,0.0,dft,jarvis_alex,,0.1856990583287876,228.6649777523457,407.4000549316406,4.943856
As2HfSc,0.253,dft,jarvis_alex,,0.3385329956297251,180.3740760145025,361.5016784667969,1.5380831
RbSi6,1.034,dft,jarvis_alex,,0.4069763993565531,219.5528844972361,373.9400329589844,2.5643203
InMgZr6,3.38,dft,jarvis_alex,,0.5757312020887358,163.7294886571172,307.7323913574219,5.482981
HInNb3,5.537,dft,jarvis_alex,,0.6895187150649995,158.50235080559568,369.7449951171875,2.3543866
Ca2OTlY,0.0,dft,jarvis_alex,,0.1581401518656032,170.68486767139126,291.0245056152344,0.9092628
Cu2Ge2Y,0.0,dft,jarvis_alex,,0.209203204199052,188.2783711472657,365.4502258300781,0.9268998
AgCd2Pt,0.01,dft,jarvis_alex,,0.2590088004212887,114.842855336961,205.21176147460935,1.7358552
Pd2SnTi,2.937,dft,jarvis_alex,,0.6547265965227986,96.53125728611492,308.9670715332031,1.9768194
InLa3O,0.374,dft,jarvis_alex,,0.3663417903379091,150.92797201108584,268.3598022460937,2.7370856
ReTa2Ti,2.995,dft,jarvis_alex,,0.5267707866755974,197.26572890183715,313.7469482421875,5.4911647
Co2HfZn,0.0,dft,jarvis_alex,,0.1261851209362184,211.9648311208204,347.8285522460937,0.5848337