formula,Tc,tc_source,dataset,pressure_gpa,lambda,wlog,debye_temp,dos_ef
HfOs2Ti,0.0,dft,jarvis_alex,,0.10196870342646,244.3604312056917,367.4098815917969,0.641758
Os2PtTa,0.89,dft,jarvis_alex,,0.4075399322923921,188.1245717489072,350.6357727050781,3.0207903
LaPtSi3,0.751,dft,jarvis_alex,,0.3841244821850588,223.79033310785223,372.4421997070313,1.846354
C2S2Ti4,0.0,dft,jarvis_alex,,0.1620326529889002,458.70893345070766,750.23828125,1.6504345
Pt2Rh2,0.705,dft,jarvis_alex,,0.3884280634780796,196.71617020467824,322.1752624511719,6.77779
OsZnZr2,0.051,dft,jarvis_alex,,0.2849652940101947,177.3420892834844,312.52947998046875,0.99838597
MoNb2W,0.197,dft,jarvis_alex,,0.3185575903546781,231.9719176229059,345.0829772949219,2.7268906
HfInRu2,0.001,dft,jarvis_alex,,0.2156261409060168,180.97918648909345,348.9639587402344,3.325593
Cu2Zn2,0.003,dft,jarvis_alex,,0.2332582250847082,185.6238776319168,322.9754943847656,0.6552199
Rh3Sn,0.899,dft,jarvis_alex,,0.4113334397214194,180.44398537070128,345.7121276855469,5.468951
La3NSi,4.277,dft,jarvis_alex,,0.7535081043021226,98.70117058496352,291.2933044433594,3.180823
GaPdRuZn,0.0,dft,jarvis_alex,,0.1093030923267171,196.2973988906645,372.5363159179688,1.5603452
Mg2ScSn,0.0,dft,jarvis_alex,,0.1715124011598529,221.4689825317305,322.85797119140625,1.2650944
CTa2,0.005,dft,jarvis_alex,,0.2365623772077676,238.62739852613427,422.6522216796875,0.8813043
HRh3Zn,0.665,dft,jarvis_alex,,0.3725124243902791,240.35256402628147,402.1832885742188,3.4190238
GaTi,0.298,dft,jarvis_alex,,0.3344272340542977,233.7702602448288,448.7447509765625,1.6361221
BeNi2Si,1.006,dft,jarvis_alex,,0.3960796256046124,249.4101573811418,479.4695129394531,1.7087259
AgNi4Zr,0.0,dft,jarvis_alex,,0.1576710709752441,236.16492938787096,353.4205017089844,6.974659
HPtRh3,1.44,dft,jarvis_alex,,0.4282089906264154,233.19192934011133,376.6045227050781,6.639376
RuSi3Y,1.952,dft,jarvis_alex,,0.4498992933328926,248.2951765979612,451.9930114746094,1.9979018
CaGa2Y,1.272,dft,jarvis_alex,,0.4688067112725496,134.13917695329795,282.9399108886719,1.758957
MoReTiW,0.016,dft,jarvis_alex,,0.2523228716566594,255.19865420602733,399.197998046875,2.6975055
GeH2Sc2,0.701,dft,jarvis_alex,,0.393939177674166,179.1081934359577,534.5612182617188,1.407558
NbOs2Rh,4.066,dft,jarvis_alex,,0.5796989893522314,192.84336468515704,418.4493103027344,3.4795108
Nb3Ti,20.216,dft,jarvis_alex,,1.7920198610214968,129.757920206013,274.4778747558594,8.080659
Be4NbW,1.222,dft,jarvis_alex,,0.3861354438266004,352.40499437866526,603.6924438476562,3.4757066
LaLiNi2P2,2.392,dft,jarvis_alex,,0.5029995194285024,187.69522642211703,398.5265808105469,4.253353
AlTc2,0.207,dft,jarvis_alex,,0.3162567150921759,258.67313531458626,520.5109252929688,1.6229833
AlCa2Mg,0.963,dft,jarvis_alex,,0.4496107512219756,122.74436962181588,319.6716613769531,2.5880198
Cu4Sn2Zr2,0.0,dft,jarvis_alex,,0.1740097109101548,181.68242579351,344.5905456542969,1.097077
AsCaNi,0.072,dft,jarvis_alex,,0.2926689336232845,189.6533114638555,345.5439453125,3.0724742
NiRuSc2,0.0,dft,jarvis_alex,,0.0969181129873088,254.7155171049872,396.1756286621094,1.208742
La3OSc,1.401,dft,jarvis_alex,,0.4745630669685483,139.98541599647317,295.4359436035156,4.273225
HgOTi3,7.67,dft,jarvis_alex,,0.7041006245319654,208.6879841876313,319.2467346191406,4.6681356
BRu,0.0,dft,jarvis_alex,,0.2054051656805978,409.354044094588,651.4277954101562,0.64060533
Pt2RuTa,0.007,dft,jarvis_alex,,0.2445186527714165,196.0166464310042,340.8236083984375,2.3094237
MgPtRhTi,1.264,dft,jarvis_alex,,0.4741799127344432,126.65590333919528,357.3210754394531,3.440673
Be4Ta,0.005,dft,jarvis_alex,,0.2305997336365626,362.6248876405183,708.9769897460938,1.0058663
AlScZr2,1.751,dft,jarvis_alex,,0.461331405423692,198.6639249286848,380.5343322753906,4.1266947
HfInZr2,1.564,dft,jarvis_alex,,0.4695461370245984,163.9583104971207,289.05010986328125,3.2476847
CuInMgNi,0.023,dft,jarvis_alex,,0.2735962954911128,128.90183842538394,308.9400329589844,2.2004075
CuHNi,0.0,dft,jarvis_alex,,0.1806665588971101,404.51507145967713,439.7796325683594,0.69030523
AuTi2V,6.024,dft,jarvis_alex,,0.6408423287645237,210.74041231272489,318.2281188964844,4.4557467
BeCo2GaH,0.003,dft,jarvis_alex,,0.2242704711310718,314.2155410887646,526.0565185546875,3.0077462
Al2Ga2Sc2,0.029,dft,jarvis_alex,,0.2664563139620025,228.10726242086,436.7572937011719,2.516809
MoReTa2,0.003,dft,jarvis_alex,,0.2303010407251021,227.74959361526385,370.7867736816406,1.9924244
RuTcTiZr,0.093,dft,jarvis_alex,,0.2921587856048729,250.45869811600355,402.0187683105469,1.7865584
InRh2Y,0.0,dft,jarvis_alex,,0.1321692854341916,171.56996159680023,293.7887878417969,0.7451673
Be2Nb4,5.979,dft,jarvis_alex,,0.6358866048783006,213.39104197904143,479.3777465820313,5.4522715
CdSc2Zn,0.03,dft,jarvis_alex,,0.2731334371709928,168.88084352761803,301.4065246582031,3.477242
RhTi2Zn,9.109,dft,jarvis_alex,,1.004092619103635,121.0754847916941,382.3343811035156,2.9501839
Mn2NbV,0.027,dft,jarvis_alex,,0.2585448066518092,311.5620866668285,506.8957214355469,1.5744836
CuPt2Rh,0.051,dft,jarvis_alex,,0.2841554751691845,182.6438858886328,288.84228515625,3.0675848
AlRu2Sc,3.167,dft,jarvis_alex,,0.535503431852682,196.51295479525112,481.9083557128906,4.938807
HNiRhV2,2.521,dft,jarvis_alex,,0.4565856322969032,298.9362777570782,471.2870788574219,4.2019258
AlRuSc2,0.004,dft,jarvis_alex,,0.2330383837189765,251.1345625050945,402.3043212890625,1.6909219
AlLiScY,0.049,dft,jarvis_alex,,0.2793093364961832,216.3314030690873,407.1428833007813,4.281347
Al4CaSc,0.102,dft,jarvis_alex,,0.2921704728004811,273.5749838125526,535.509033203125,4.4424596
AlZn3,0.78,dft,jarvis_alex,,0.4041138440673488,172.46801440881424,356.7458190917969,1.1305816
AgSc2Zn,0.258,dft,jarvis_alex,,0.3476530756660205,150.34890825554322,311.5475769042969,2.8877053
AlRh,0.0,dft,jarvis_alex,,0.1182610462360093,287.1702286629314,498.28900146484375,0.83608747
B4NbZr,0.6,dft,jarvis_alex,,0.3318965425125892,499.7957905448015,853.70166015625,1.6535068
LiPdRhSi,0.0,dft,jarvis_alex,,0.2058952495448348,241.12455594246856,428.0027770996094,1.2372128
Ba2Sr6,0.001,dft,jarvis_alex,,0.2344337886858402,65.39746842470552,110.52635955810548,8.777071
H4Nb2V2,0.289,dft,jarvis_alex,,0.3239645737179752,293.1751943911524,546.3397827148438,2.4034777
NSr2,0.0,dft,jarvis_alex,,0.0804050606665147,235.63145259712323,260.6273193359375,0.9151052
GaRuV,0.68,dft,jarvis_alex,,0.3681149479268334,266.29601874080595,431.6933898925781,1.4047407
V3W5,0.019,dft,jarvis_alex,,0.2560961375536364,250.7497350786957,383.9546813964844,4.665114
Pd6Ti2,0.0,dft,jarvis_alex,,0.17045702220671,216.65019865434067,364.3843688964844,10.047089
AlMoRh2,0.121,dft,jarvis_alex,,0.3001450513802681,247.7820709584531,466.9346618652344,2.8238885
Al2CoRu,0.0,dft,jarvis_alex,,0.1438011114439051,276.260133581073,547.7774047851562,2.2539768
Rh2ScTi,2.409,dft,jarvis_alex,,0.5199915676690944,166.4184930399863,388.2412414550781,3.2381773
Li4Na2,0.012,dft,jarvis_alex,,0.2530504212219523,190.57452980703368,261.7527770996094,3.2032943
NiTi2W,3.989,dft,jarvis_alex,,0.5704367962430597,198.85596200596933,359.2047424316406,3.782397
Cu2Zn,0.0,dft,jarvis_alex,,0.1783212288754687,205.7168938809764,330.518310546875,0.94770056
Rh2Ru,1.17,dft,jarvis_alex,,0.4013547476843841,269.6714926546508,471.3323974609375,2.2139163
FeRh2Sc3,0.0,dft,jarvis_alex,,0.1744636476087914,246.35425789117176,395.2938232421875,4.7359614
Al7Li,0.829,dft,jarvis_alex,,0.3699773885222964,314.0285061753545,583.8065185546875,1.1016971
AgAuLi2,0.121,dft,jarvis_alex,,0.3273115525396943,112.61169684404908,198.9460906982422,1.0908676
CuGaPdRh,0.0,dft,jarvis_alex,,0.1001190160715523,190.97201285934457,337.7261657714844,0.5380949
MnZnZr2,5.467,dft,jarvis_alex,,0.7157860814848567,143.0114271799277,330.8519897460937,3.4571917
Nb2Os2Rh2,0.094,dft,jarvis_alex,,0.2989104188257758,199.3535390680348,354.8524475097656,3.9744413
Sc6TlZr,1.543,dft,jarvis_alex,,0.4530264222086447,190.246436469313,289.88787841796875,7.9360495
Cu2LuNi3,0.003,dft,jarvis_alex,,0.233478248965387,155.1422093542874,348.8112487792969,5.681187
AlH2Rh2,0.008,dft,jarvis_alex,,0.2354157759380833,378.7056896010091,452.9681091308594,1.6833067
MoPtRh,2.325,dft,jarvis_alex,,0.4839274060730013,214.2745692297077,389.0193176269531,1.5264716
CdMn2Ti3,5.832,dft,jarvis_alex,,0.6243889892882546,219.8282374396965,388.5668640136719,4.690991
LiOsZr2,0.418,dft,jarvis_alex,,0.3621594414601026,182.5339604789514,303.6747131347656,1.599573
N4Na2Tc2,26.439,dft,jarvis_alex,,1.2386718223959805,256.2587695157208,371.8943786621094,4.1549926
BiCMgY2,0.193,dft,jarvis_alex,,0.3243268034098156,194.3327953584763,328.050048828125,1.8574529
AlNiRuSc,0.0,dft,jarvis_alex,,0.1292009730258963,271.6637568748861,467.548583984375,1.3933054
Cr2HN,3.595,dft,jarvis_alex,,0.447751645340445,467.8421849784208,768.2456665039062,2.1884384
NPtV3,4.217,dft,jarvis_alex,,0.5533961218491349,232.3690709587904,477.1347961425781,4.9479327
Rh3Ta,0.006,dft,jarvis_alex,,0.2386584365556233,246.9815912668064,455.9097900390625,2.3505073
Al2C2NbTi3,0.0,dft,jarvis_alex,,0.1963617920976363,383.1952852888067,676.35302734375,4.002686
GaNbTi2,6.438,dft,jarvis_alex,,0.6746612422085047,196.03437363376463,417.00726318359375,5.3254385
HgOY3,0.055,dft,jarvis_alex,,0.2883984172941938,167.62836355955778,306.5364074707031,2.0967858
La2N2Ni,0.0,dft,jarvis_alex,,0.2023926388057921,335.51902486885075,368.0281066894531,1.2075305
CrRuTa2,0.0,dft,jarvis_alex,,0.1979694888751128,248.91641920957696,349.10400390625,1.8313537
OsRuScZr,0.0,dft,jarvis_alex,,0.2024202704987923,229.28171749357463,354.9983825683594,2.521008
CMgZr3,0.253,dft,jarvis_alex,,0.3315921463279759,212.32680740437127,473.0180969238281,3.040455
HMgZr3,1.929,dft,jarvis_alex,,0.4688157194640238,203.0273461915941,396.5261535644531,2.9169514
C2Mg2Sc4,0.127,dft,jarvis_alex,,0.2999335201134137,260.8769321790471,497.28216552734375,6.6424875
GaMnV6,3.728,dft,jarvis_alex,,0.5017781613479206,296.2920332199575,403.8053588867188,6.333053
GaV3,2.887,dft,jarvis_alex,,0.5144901482376266,207.40428260424125,443.6875305175781,1.879271
NiPdScZn,0.977,dft,jarvis_alex,,0.4663787925853053,105.23312455896628,316.1108703613281,2.4144266
MgPd2Sb,1.84,dft,jarvis_alex,,0.5651780212040546,94.39667015642137,238.4326019287109,1.4310561
HNi2PdSc,1.755,dft,jarvis_alex,,0.4070848160499765,372.5610832224135,392.768310546875,1.1580044
RuTa2V,0.01,dft,jarvis_alex,,0.2478711307308535,223.92848987805075,337.3828430175781,3.7970393
Al3Ta,0.0,dft,jarvis_alex,,0.1177966431970253,300.7753499316918,508.6968383789063,0.7224968
MnTi2Zr,14.14,dft,jarvis_alex,,1.0501643289549505,176.14118668865214,399.5953063964844,4.921735
AlCuV2,0.248,dft,jarvis_alex,,0.3182773790821253,293.72452868598907,453.1831970214844,3.492161
Ga2HfZn,0.055,dft,jarvis_alex,,0.2868488505171506,179.13210061364518,289.10211181640625,1.5076479
BeRu2W,0.0,dft,jarvis_alex,,0.1657169973174828,259.04933472214145,431.342041015625,0.47473276
CuNi2Zn,0.0,dft,jarvis_alex,,0.1215964847948138,210.107875242011,373.205810546875,4.473916
Al6CaCu,0.021,dft,jarvis_alex,,0.2606511172993296,218.13147294107424,414.0925903320313,2.0911784
GaLiRhTi,1.539,dft,jarvis_alex,,0.4390843133178875,220.1371550749344,344.04742431640625,5.4058723
HgPbTi6,4.703,dft,jarvis_alex,,0.6036665465886882,195.95152398386188,287.9550476074219,7.999526
Sc7Zr,4.536,dft,jarvis_alex,,0.6129912401496812,180.79680806911136,307.8072814941406,14.534359
Mo3Nb2Ti,4.082,dft,jarvis_alex,,0.5541133349118069,224.6626280360493,391.06353759765625,7.522528
LiMg2Pt3,0.0,dft,jarvis_alex,,0.197956184236646,137.90070495018864,277.59234619140625,1.1599371
CuInLiY,0.0,dft,jarvis_alex,,0.1356625824871846,189.36048973843705,289.1132202148437,0.9108128
CLuSc,0.048,dft,jarvis_alex,,0.2763261418857712,237.57566914291183,377.0293884277344,2.3278549
OsSc2Zn,0.115,dft,jarvis_alex,,0.307769861435107,184.46153733580263,298.9781188964844,1.9752344
Li2Mg,1.033,dft,jarvis_alex,,0.4126971517929231,203.20988661897275,412.0856628417969,1.3794079
LiRhSnY,1.178,dft,jarvis_alex,,0.4442780672306499,159.0716038370563,303.61181640625,4.50714
Pt6RhTc,0.456,dft,jarvis_alex,,0.3673851533766278,180.9191275778105,314.9863586425781,12.254444
Be4V2,0.507,dft,jarvis_alex,,0.3306305203924362,435.69884525773983,915.2576904296876,5.4644375
NbRhRu2,3.544,dft,jarvis_alex,,0.5294293667284647,229.6708584281586,454.1224060058594,4.724365
PtRh3,0.803,dft,jarvis_alex,,0.3873050099347766,228.08239142210272,403.3493041992188,6.4490695
Al2LiRu,1.148,dft,jarvis_alex,,0.416602732898387,214.7198720772029,481.94329833984375,1.6497084
Al2MgNi3,0.0,dft,jarvis_alex,,0.2094767021015625,228.7442033459789,497.7381591796875,3.3759456
Nb2Zn4,0.023,dft,jarvis_alex,,0.2620004803422655,223.780859674214,423.9552917480469,2.726976
Pt2RhRu,0.433,dft,jarvis_alex,,0.354341624982672,220.39171947953696,350.3258972167969,4.175459
HfPd3,0.0,dft,jarvis_alex,,0.082211586940981,170.41239889016805,339.8042907714844,0.6090086
AlTiZn2,0.0,dft,jarvis_alex,,0.1714606883841034,267.7500629221523,396.6402587890625,1.9216046
MgRhRuSn,0.0,dft,jarvis_alex,,0.1101296734676288,211.4502269474097,367.807373046875,1.8272685
LuRu2Ti,0.002,dft,jarvis_alex,,0.2228387019249127,225.8609938908944,366.2717895507813,2.7758176
Ni2RhTa,0.0,dft,jarvis_alex,,0.1317315718335354,234.6807864532089,395.8802795410156,0.508469
InRh2Sc,0.0,dft,jarvis_alex,,0.0966532956606881,214.4056504665319,369.3306579589844,0.5346508
CFeLiY2,0.0,dft,jarvis_alex,,0.2068015541531938,239.6010091814592,415.9080200195313,3.216129
N4Na2Re2,23.523,dft,jarvis_alex,,1.4105639185742165,192.28318940040705,320.5455322265625,2.524765
HfReZn4,0.0,dft,jarvis_alex,,0.2091309790088587,185.90623286348824,354.9794616699219,2.530814
CCdRh3,0.001,dft,jarvis_alex,,0.2145026044714738,201.80343117359385,377.4339599609375,4.9935555
NiRh2W,0.254,dft,jarvis_alex,,0.3288821795123625,228.3499981373304,414.3573303222656,3.678449
AlRu2Zr,0.13,dft,jarvis_alex,,0.3047863288485433,229.367724331354,413.6174926757813,3.743369
B2HfNi2,0.189,dft,jarvis_alex,,0.3013957328667559,369.9024610616802,573.3629150390625,2.474306
Be4RuW,3.938,dft,jarvis_alex,,0.5088620800897301,295.0745875669488,635.305419921875,4.016284
InRh2Si,0.068,dft,jarvis_alex,,0.292671638275737,179.20514606610357,413.0057067871094,1.3293352
In2LiPd,0.218,dft,jarvis_alex,,0.3495792109687616,122.21556540130548,278.9801330566406,1.01052
HfMgRh2,0.0,dft,jarvis_alex,,0.0787167976769798,194.9250945934924,349.8529052734375,0.97694343
CNb2S2,3.171,dft,jarvis_alex,,0.4843756738886046,290.114696417749,282.5635681152344,2.1458118
AlHLaSi,2.414,dft,jarvis_alex,,0.4816049798329154,225.96925256717483,412.6377868652344,2.2763298
MoRh2Zn,2.568,dft,jarvis_alex,,0.5107504146347491,190.29965551052555,389.4739074707031,2.3896809
HfTc2Ti,1.495,dft,jarvis_alex,,0.4339344500590761,227.0146685834233,355.1881408691406,4.053449
CrNb2Ru,0.466,dft,jarvis_alex,,0.3499225115045141,259.35021824671054,378.119873046875,2.5118861
Mg5ScY2,0.27,dft,jarvis_alex,,0.3586315992077928,126.0709140992455,311.2606201171875,6.515671
CHgZr3,0.774,dft,jarvis_alex,,0.4099390826731071,157.92511253483016,400.5198364257813,3.2982955
C2NbTi,5.869,dft,jarvis_alex,,0.5069712527856258,446.54439036848936,734.155517578125,1.3111502
C2HfZr,0.0,dft,jarvis_alex,,0.1650753770260094,407.7665668580004,580.125732421875,0.6835977
CdNi2Zn,0.0,dft,jarvis_alex,,0.1287947827573662,171.04104662031887,328.8460388183594,1.723833
CaPtSi3,2.161,dft,jarvis_alex,,0.4634604838204411,239.6052534199099,367.6567993164063,0.9678545
CrVW2,0.003,dft,jarvis_alex,,0.2274674975609715,277.46708424046795,406.8493347167969,1.2919085
Be4Tc2,2.68,dft,jarvis_alex,,0.4632186948929829,297.9210108365445,747.1559448242188,3.5474632
MoTiZn4,0.068,dft,jarvis_alex,,0.2857454545488896,230.9273666620533,405.53070068359375,3.811761
B4W4,1.797,dft,jarvis_alex,,0.4249224873212749,302.7832543205241,543.744873046875,2.2980957
NSc2,0.013,dft,jarvis_alex,,0.2437510850978495,373.6754228814973,736.44140625,2.9658904
H2Ti2Tl,0.559,dft,jarvis_alex,,0.3615874997428104,246.3090857579166,348.0101623535156,4.473365
RhTcTi2,0.002,dft,jarvis_alex,,0.2229598489351411,268.5364401811005,463.6527099609375,2.2699952
AgMg2Ni,0.0,dft,jarvis_alex,,0.1719108887659368,164.12263311046408,338.2053527832031,1.5662798
AlNbRu2,0.0,dft,jarvis_alex,,0.086786758540649,272.9145724576329,492.9483947753906,0.038608752
N2Sc3,0.002,dft,jarvis_alex,,0.2173544166693731,392.5445713714264,799.513427734375,3.5565794
Co2RhTi3,15.52,dft,jarvis_alex,,1.584897315221195,112.47719294943636,388.4975891113281,6.2764173
InNiRuSc,0.0,dft,jarvis_alex,,0.1357405811171373,214.13779657048696,373.7182922363281,1.5666587
Ga2InTi3,0.029,dft,jarvis_alex,,0.2646129162835953,245.5597559867797,390.9006652832031,4.700874
SiTcV6,4.638,dft,jarvis_alex,,0.5325815000990752,293.8647007265346,477.0216064453125,5.2014947
AlFeOsV,0.0,dft,jarvis_alex,,0.1854118678444657,294.0796716380879,490.5579528808594,0.7430267
LaPPd,0.087,dft,jarvis_alex,,0.3021822685449424,166.51133900461696,299.1345520019531,0.9005968
MgPtRhSc,0.0,dft,jarvis_alex,,0.1327459015762279,186.95637465774576,305.2564392089844,1.9481422
Cu2Ni,0.0,dft,jarvis_alex,,0.1203668543130247,235.78032161552773,382.8061828613281,1.6243057
CCdZr3,0.268,dft,jarvis_alex,,0.3375117515323496,195.46881909560932,435.1638793945313,3.01822
HfOsRuSc,0.0,dft,jarvis_alex,,0.1998679492367763,220.9417120865555,333.9787292480469,1.9805467
Cr4NbTa,6.808,dft,jarvis_alex,,0.6268885927417702,253.92922714159,386.7446594238281,5.003307
Li2SnSr,0.0,dft,jarvis_alex,,0.1600855800179822,153.16578066545034,265.0256042480469,0.11187631
TaW3,0.002,dft,jarvis_alex,,0.2236492247516862,210.0253142462876,349.54766845703125,1.151978
PtSc2Tc,0.0,dft,jarvis_alex,,0.206784405460326,235.3664219574882,330.8264465332031,2.717745
Ga2PdRu,0.354,dft,jarvis_alex,,0.3623536478385205,154.0381169280707,353.8883361816406,0.5095153
AlMgY2,0.026,dft,jarvis_alex,,0.2684848032891232,184.65452373081143,339.7419128417969,3.44975
HfPdRh2,0.07,dft,jarvis_alex,,0.2892888319443316,208.81650745728533,359.025390625,4.97287
NbTc2Ti,0.15,dft,jarvis_alex,,0.3035602689350651,274.9323884448547,440.0632019042969,3.746877
Cu2Ni4Zn2,0.0,dft,jarvis_alex,,0.0842483051784553,204.10467675594165,347.8868713378906,1.7911036
OsTaV2,0.006,dft,jarvis_alex,,0.2374068039488902,266.1512387464542,355.6311340332031,2.7297914
Cu2InS4Zn,0.0,dft,jarvis_alex,,0.1673692600036248,156.83259995959108,309.7058410644531,7.496146
InLiYZn,0.53,dft,jarvis_alex,,0.3905130604247013,142.75118614494207,314.7886047363281,1.7952579
FeSi,0.0,dft,jarvis_alex,,0.131734807917718,344.6917659019417,656.3258056640625,0.69372684
MgZn2Zr3,0.919,dft,jarvis_alex,,0.4358758159226784,136.16533181256673,334.7143859863281,0.69710106
C2TaY,0.149,dft,jarvis_alex,,0.3005202500413912,300.43336361347593,504.5157775878906,0.8757558
ScZn3Zr2,0.174,dft,jarvis_alex,,0.3290184821928028,155.4181405707289,340.6798400878906,6.0791802
Co2RhV,0.085,dft,jarvis_alex,,0.2857737964917063,289.9572880106219,563.9451293945312,3.517022
HNi2RuSn,0.002,dft,jarvis_alex,,0.2268424392691657,238.22553958822948,364.2187194824219,4.117188
BeNbRhRu,0.0,dft,jarvis_alex,,0.1093311024735807,252.53731891209995,402.4143371582031,0.5332747
CaHg2Sr,0.341,dft,jarvis_alex,,0.4019951725526796,77.73709514713948,116.45732879638672,2.547565
Al2PdTi,0.015,dft,jarvis_alex,,0.2518691122356832,252.92588979061097,451.8883056640625,1.9677672
LiMg2Pd,0.007,dft,jarvis_alex,,0.244009555947541,191.4591971173655,344.44744873046875,1.7410384
NbOsTa2,0.024,dft,jarvis_alex,,0.2626624836288745,227.47477823569352,331.3188781738281,1.4369193
MnOsTa2,7.775,dft,jarvis_alex,,0.7118967509907869,207.47730350379848,271.6964111328125,3.2771304
GaMgRh,1.022,dft,jarvis_alex,,0.44873649715905,131.49726689064468,368.4146728515625,2.076085
Nb2OsTc,7.401,dft,jarvis_alex,,0.6977576991286513,207.3417544064278,384.6525573730469,4.4541516
CoHMoRu2,1.295,dft,jarvis_alex,,0.4124860143432569,255.6811199979729,478.8305969238281,2.295165