formula,Tc,tc_source,dataset,pressure_gpa,lambda,wlog,debye_temp,dos_ef
HfPd2Zn,0.013,dft,jarvis_alex,,0.2571766387632157,157.28929311688483,301.3778381347656,1.7446526
OsRh2,0.974,dft,jarvis_alex,,0.3975673595655841,236.87434900602088,438.7422180175781,2.5555356
Hf2OsRe,0.015,dft,jarvis_alex,,0.2566877061558978,190.98843464304232,311.5958557128906,3.3349962
Ni6SbZn,0.0,dft,jarvis_alex,,0.1648018214773128,219.1887878825047,365.9888000488281,9.439203
InNbPd6,0.0,dft,jarvis_alex,,0.1363250440964272,197.9599633743299,309.6816101074219,1.5512955
Li3Pd,0.068,dft,jarvis_alex,,0.2913919628466012,185.9428329093734,279.9798583984375,1.8254417
Nb2ReTc,0.013,dft,jarvis_alex,,0.2485119974573849,265.52570716267627,371.2732238769531,1.2218149
MnReTi2,1.587,dft,jarvis_alex,,0.4295215443103746,253.5020235529944,373.5193176269531,3.7995317
HgInTi2,0.052,dft,jarvis_alex,,0.2818561986676251,207.31905478491305,301.02642822265625,4.353826
CdMgSc2,0.004,dft,jarvis_alex,,0.2358926038482158,178.65638965925467,310.0931091308594,4.4805465
HfNbOsTc,0.0,dft,jarvis_alex,,0.1412250279051002,246.23132843592305,364.8027648925781,1.9604673
MgReRh2,0.469,dft,jarvis_alex,,0.3668990854607372,187.5864309273601,396.4592590332031,2.8255856
GaLiPt2,0.03,dft,jarvis_alex,,0.2833495323798669,111.22830347957968,290.0107116699219,0.94898385
Rh3Zn,0.045,dft,jarvis_alex,,0.275591477837107,233.0534522995348,394.8259887695313,2.9230587
TaTc2V,0.038,dft,jarvis_alex,,0.2676550982545807,277.9249591683261,401.1844787597656,1.8363283
Al2BRu2Y,0.251,dft,jarvis_alex,,0.3313003137344945,211.81009725656065,503.4881896972656,2.2230787
Mo2ReTa,0.66,dft,jarvis_alex,,0.3713441776407385,244.15943721099663,377.6275329589844,2.3954995
CrVW2,0.002,dft,jarvis_alex,,0.2232892398910168,279.59456868990696,386.1590881347656,3.12346
BeCoRuTa,0.0,dft,jarvis_alex,,0.0885320682631741,257.8351856728594,420.0152893066406,0.59599775
AlCo2H2,0.0,dft,jarvis_alex,,0.1953721859751948,348.1792960596421,564.69091796875,2.2367463
Tc4,11.197,dft,jarvis_alex,,0.8703907486079884,192.8558790019616,495.9690551757813,3.976988
Nb2W,2.5,dft,jarvis_alex,,0.5015844118370343,198.64141921641263,299.8666381835937,3.3003829
LiPtRhZr,0.012,dft,jarvis_alex,,0.2585100911147991,139.7082107679764,217.9387359619141,2.0750096
GaHTa,2.298,dft,jarvis_alex,,0.5388784962015448,138.94062047329825,341.447998046875,0.7657221
HgNi4Y,0.0,dft,jarvis_alex,,0.1505851486880918,214.934556511675,286.7973022460937,6.509544
BiCZr2,0.895,dft,jarvis_alex,,0.4049663528793029,195.2443993364396,377.6227111816406,1.6577743
La2NSnSr,0.219,dft,jarvis_alex,,0.3416191512277412,145.24824391764142,245.7588653564453,2.1889045
Li2RhZn,0.0,dft,jarvis_alex,,0.2019720176073605,211.44211840958505,322.78814697265625,0.9572263
AlOsSc2,0.049,dft,jarvis_alex,,0.2795981402812267,214.25691799062653,325.5409545898437,2.0268044
MgRh2Ti,0.0,dft,jarvis_alex,,0.1042171072405009,255.9994976976492,426.51177978515625,0.36431748
CoFe2HW,0.001,dft,jarvis_alex,,0.2126528899051526,339.7802662241794,449.7182312011719,2.7230206
HfRu2Sc,0.0,dft,jarvis_alex,,0.1774874911948737,223.30383352036856,364.2890319824219,2.95734
Cr4ReTc,20.907,dft,jarvis_alex,,1.1489868148145568,228.6175228425648,429.1182861328125,7.7558317
Be2Ti4,3.119,dft,jarvis_alex,,0.4901225222427842,272.0104403968614,595.2496337890625,2.6703646
LuZr2,4.257,dft,jarvis_alex,,0.6454644255107876,146.38064002240978,250.0624542236328,3.2835314
RuTcTi2,0.173,dft,jarvis_alex,,0.3072915264151672,281.4345765991429,440.4840393066406,3.5522475
HfRe2Ta,0.002,dft,jarvis_alex,,0.2261616170246231,205.6943403587163,315.3408508300781,2.3456252
Cl3SiY3,1.653,dft,jarvis_alex,,0.4746002601778356,165.01820128964246,303.3884582519531,1.3817477
CaCo2Si2,0.0,dft,jarvis_alex,,0.1919318236494078,313.0376775076811,528.5379028320312,2.2823315
BeGaPtRu,0.0,dft,jarvis_alex,,0.1461632838685005,256.2615063447955,401.5889587402344,1.6057597
Cr4Ti2,0.106,dft,jarvis_alex,,0.2892429122276,316.5642816310921,488.794189453125,3.8334267
MoOsTaTi,0.084,dft,jarvis_alex,,0.2895459586725842,248.32305239291549,380.876220703125,2.1601415
BePd2Ta,0.097,dft,jarvis_alex,,0.3018527549658434,186.79633120355248,379.8673400878906,1.1547098
La3NTl,0.576,dft,jarvis_alex,,0.3982135624856651,138.48259853229416,262.4440612792969,2.628975
Cd2Li5Si,0.21,dft,jarvis_alex,,0.3345198258875769,164.46707342967355,364.3494567871094,1.3321867
InSc2Zn,0.001,dft,jarvis_alex,,0.2150922436608781,171.55547940479863,319.3758850097656,3.6594625
AlHf2Tc,0.003,dft,jarvis_alex,,0.2313426692193064,180.2476942345104,267.6969299316406,1.0922794
Ni3V,0.005,dft,jarvis_alex,,0.234014415747169,295.5192910810329,513.206787109375,2.7276568
AlHf2Mo,2.057,dft,jarvis_alex,,0.495072999068826,172.25511710325603,296.0687561035156,2.359182
Mo5Sc,0.977,dft,jarvis_alex,,0.3944604021038408,248.7125366894728,442.1734313964844,5.4233546
CPbSc3,0.0,dft,jarvis_alex,,0.1547606840087105,312.6792070673642,429.9233703613281,3.0855668
MgRhRuV,0.0,dft,jarvis_alex,,0.1556317046915924,262.70107046357896,424.9743347167969,0.60301816
HInRh3,0.511,dft,jarvis_alex,,0.3548385805237865,256.7950273064512,360.6399841308594,3.8747406
Al4LaNb2,2.861,dft,jarvis_alex,,0.5252720596936892,190.1782643070928,413.8024597167969,6.426514
CrV,1.908,dft,jarvis_alex,,0.4339037446273333,289.52342685013934,530.30029296875,1.8678948
Ga2Zr4,4.895,dft,jarvis_alex,,0.6510475702030816,164.22353089429552,354.5172424316406,6.9055195
AlLiRe2,0.013,dft,jarvis_alex,,0.2508613425494143,224.72791553722848,354.4567565917969,1.0893492
Rh3Ru,2.026,dft,jarvis_alex,,0.4551002887456219,244.80219681104185,475.2701110839844,5.836002
CuGa2,0.474,dft,jarvis_alex,,0.3707872671674335,176.83166843533976,299.73931884765625,0.99066395
NbPd3,0.003,dft,jarvis_alex,,0.229976863517325,212.4013998407635,369.6048278808594,1.7933902
Li2MgZn,2.67,dft,jarvis_alex,,0.5798246041088512,125.69858510139672,301.7206115722656,2.167664
HTi3Tl,6.228,dft,jarvis_alex,,0.6658602602095285,195.5952606709514,307.9495544433594,4.894267
MoTc2Zr,0.075,dft,jarvis_alex,,0.2857735496067702,255.70256729038232,401.0957336425781,0.60883033
CuTi2,0.278,dft,jarvis_alex,,0.3327294171179289,227.27555243106607,364.9584045410156,1.4713845
CPtV2,0.173,dft,jarvis_alex,,0.307757591320816,277.10212460681066,522.7947387695312,3.38514
In2LiZr,0.0,dft,jarvis_alex,,0.1940848301348095,180.6770988637864,314.2242736816406,1.8403765
C2Nb4P2,1.477,dft,jarvis_alex,,0.399698622604676,347.5587151972133,630.4371948242188,3.6878693
Ru2SnTi,0.0,dft,jarvis_alex,,0.0507226981542229,258.46292023438446,442.4377136230469,0.057917826
CScSnY2,0.002,dft,jarvis_alex,,0.2222272741131995,233.1222377363431,405.6461486816406,2.4309328
AgAlSc,5.663,dft,jarvis_alex,,0.94985433668882,82.23260400856509,359.0271911621094,2.0808368
CuPd2Ti,0.0,dft,jarvis_alex,,0.1522402112570023,231.7912281834004,366.5572509765625,2.4501598
Cr4OsRh,6.894,dft,jarvis_alex,,0.6099599597706657,278.8700261960996,401.4429626464844,5.3631997
PS3Sc4,1.169,dft,jarvis_alex,,0.4034422349403859,261.2114495098703,500.96484375,3.1700864
InPZr2,0.068,dft,jarvis_alex,,0.2976078808536567,150.4050872024869,348.9092712402344,2.3696694
CCr2Ru,2.711,dft,jarvis_alex,,0.4542205642968553,329.73832564017414,645.3027954101562,3.205462
N3Ti4,3.596,dft,jarvis_alex,,0.4696477947007038,375.9673475877093,788.627197265625,7.222903
MgRh3,0.127,dft,jarvis_alex,,0.3051864231346977,220.859750413496,401.3894348144531,3.9165094
BePd2Pt,0.026,dft,jarvis_alex,,0.2698902053613951,173.22510500412025,343.2704772949219,2.6543596
MgMoRu2,3.862,dft,jarvis_alex,,0.6049542691815587,159.79098738074975,428.4036865234375,2.08159
Pt2TaZn,0.016,dft,jarvis_alex,,0.2601691869509672,167.06763234993926,287.8400573730469,1.0426335
Be4MoW,0.087,dft,jarvis_alex,,0.2795135586480288,376.1871838464207,638.2552490234375,1.266679
Al2Au,0.082,dft,jarvis_alex,,0.2900045234098789,237.91699161993407,261.19219970703125,1.1605451
B4Ba2C4,0.238,dft,jarvis_alex,,0.3019266771201866,456.84346654270513,634.38720703125,1.3827507
CSc2SnZr,0.157,dft,jarvis_alex,,0.3114969539935197,225.45139229123964,487.6813049316406,2.4730148
CuOsTi2,3.015,dft,jarvis_alex,,0.6001743927061058,127.40548896864291,373.3089599609375,4.3390884
NbNi4Pd,0.0,dft,jarvis_alex,,0.1857749169413783,235.48696154642585,400.0970458984375,6.938374
MgSc4,1.565,dft,jarvis_alex,,0.4567821792904831,185.74572488115712,318.6554870605469,8.559075
NOZr6,0.854,dft,jarvis_alex,,0.3907706580283797,229.290977410511,384.5541076660156,6.390641
OsRh2Ta,0.47,dft,jarvis_alex,,0.3584293591445636,220.406635891848,407.21295166015625,3.1834416
AlNi2Ta,0.394,dft,jarvis_alex,,0.3545451436886501,199.2243252770683,437.9376831054688,2.3622658
CrNb2Os,0.115,dft,jarvis_alex,,0.296712732801452,263.9887792740877,370.2951049804688,2.3304262
HRuZn,0.636,dft,jarvis_alex,,0.3751301903790635,219.5228188722364,405.7393493652344,2.0060384
AuNb3Ru2,9.22,dft,jarvis_alex,,0.8912215575927684,151.83901055633788,320.7204895019531,6.193701
CuMoTi2,4.174,dft,jarvis_alex,,0.562874813631066,217.60736980310617,413.9748840332031,3.5317473
Al7Hf,4.273,dft,jarvis_alex,,0.5713004092700901,211.73542597378523,414.5856323242188,4.796976
AuBRh2,0.523,dft,jarvis_alex,,0.3852534868772083,152.92067601037502,407.70355224609375,2.800617
H2La,0.0,dft,jarvis_alex,,0.1882294774283557,230.6194410220178,327.3834533691406,1.2176129
CuRh2Ru,0.889,dft,jarvis_alex,,0.3971108816778145,217.4756525349608,433.0909423828125,3.474804
Rh2ScTi,2.069,dft,jarvis_alex,,0.498856249979911,168.00915451621978,389.730224609375,4.0299664
NiOsSc2,0.0,dft,jarvis_alex,,0.1596585518744647,224.8222069154634,354.1961364746094,1.4499375
AlLiPdSc,0.308,dft,jarvis_alex,,0.3359329837110232,232.84717235371863,356.2420959472656,4.1362333
Be2Ni,0.137,dft,jarvis_alex,,0.2956883571577403,323.322406660642,652.01708984375,0.92335933
MgOsRuTa,0.128,dft,jarvis_alex,,0.3089666716287753,198.3789461359104,353.6229553222656,2.420148
GaMoRh2,0.324,dft,jarvis_alex,,0.3381224231722977,233.58018844587903,401.12933349609375,3.1546206
CuMgPd2,0.0,dft,jarvis_alex,,0.1329961148071058,151.3510677901031,317.3239440917969,0.93901956
InRh3,0.2,dft,jarvis_alex,,0.3252957880928446,196.9693732277846,349.6524353027344,5.142377
AlGaTi2,0.574,dft,jarvis_alex,,0.36384284737535,242.8200369998962,499.9072570800781,3.6125097
Mo2ReTi,0.035,dft,jarvis_alex,,0.2666361191891264,269.0153239056141,400.4774475097656,1.816013
CuLiPdSi,0.497,dft,jarvis_alex,,0.3685818934077425,192.6361109385666,368.3576354980469,2.104133
FeH2Zr2,0.157,dft,jarvis_alex,,0.3089763679856119,242.3921279710162,353.9195251464844,0.98745453
Mo2ReV,1.429,dft,jarvis_alex,,0.4154567058516709,271.8618047276358,397.2833557128906,2.61171
CInScTi2,0.048,dft,jarvis_alex,,0.2753623979420201,248.5073690187087,532.6123657226562,3.8275542
Cr4MoOs,18.918,dft,jarvis_alex,,1.0475162992189526,237.13896048368147,422.7265930175781,7.218295
NiOs2V,2.528,dft,jarvis_alex,,0.4862229352093931,228.25514500276924,424.8236389160156,3.5827231
Pd3Ta,0.0,dft,jarvis_alex,,0.1877504270491252,194.55738243326704,341.5453491210937,1.3520777
Ge2Ti6,9.117,dft,jarvis_alex,,0.8615499761556716,159.02598707342838,420.1199645996094,6.9323306
LiRhZn2,0.027,dft,jarvis_alex,,0.2692630073450133,186.7910917228248,297.41632080078125,1.4879969
Rh3W,1.321,dft,jarvis_alex,,0.4233500756062679,227.57944654113768,445.2443542480469,2.5873942
AlCa2LaO,0.007,dft,jarvis_alex,,0.24605712472518,168.68347584851543,311.282470703125,1.4324113
HOsRu2Ta,6.457,dft,jarvis_alex,,0.6707031809852707,199.02906922710392,383.2162170410156,5.137178
CH2Nb2,8.15,dft,jarvis_alex,,0.5760532011504079,391.9392568388973,544.8646240234375,1.685514
CuH2Y2,2.181,dft,jarvis_alex,,0.5189430973584945,151.4636131526281,382.5105895996094,2.5647898
Fe2HNiTa,0.001,dft,jarvis_alex,,0.2139165383876749,327.3271397091942,434.8605346679688,3.590727
LiPt2Ti,0.001,dft,jarvis_alex,,0.2190958934681401,179.57410989287598,284.2682189941406,1.7620361
MoOsTa2,0.0,dft,jarvis_alex,,0.187058087943409,232.8701191724317,367.7422180175781,1.0478202
Mo4Ti,0.126,dft,jarvis_alex,,0.2993819458403974,264.480226129508,446.0410461425781,2.6390622
NiPdZn2,0.012,dft,jarvis_alex,,0.2631907897088961,112.88091299034714,320.4439392089844,2.2829983
Al2ScY,0.118,dft,jarvis_alex,,0.3155731879276542,150.94477283828553,407.0309753417969,1.4498692
CuPd,0.0,dft,jarvis_alex,,0.1590796003371875,164.2787664677085,310.6780090332031,1.2663578
Ca2H2,0.0,dft,jarvis_alex,,0.1842184840904932,322.85385154708086,407.0806579589844,1.9449227
O2PbSc2,0.032,dft,jarvis_alex,,0.2733572358811134,180.41698034783545,405.5528259277344,1.6230032
AuNTiV2,1.234,dft,jarvis_alex,,0.4141363089222451,238.2773998399092,427.3420715332031,3.5717947
OsReTa2,5.096,dft,jarvis_alex,,0.6447711994657909,175.94056388344495,343.3534851074219,2.3963425
Fe2Sc2Si2,0.598,dft,jarvis_alex,,0.361999528484188,262.0198783304071,545.3593139648438,6.1291027
NiRh2Ti,0.159,dft,jarvis_alex,,0.3091606935926595,245.155276072316,462.0220031738281,4.06323
CLu3Sn,0.002,dft,jarvis_alex,,0.2280790448507495,171.60981732512528,311.9994201660156,1.7412935
Co2Sc4,6.106,dft,jarvis_alex,,0.8656472499127085,105.36075289295566,210.0037078857422,7.555384
GeHNi3,0.111,dft,jarvis_alex,,0.3102433762135206,165.30080693918802,395.7187805175781,4.169876
AlRh2Sc,0.0,dft,jarvis_alex,,0.0975379847355879,243.07092648104268,460.6255798339844,1.212873
GaHPtRh2,1.63,dft,jarvis_alex,,0.4971719250518066,133.7690420242096,344.2250061035156,2.9726992
Rh2ScY,0.0,dft,jarvis_alex,,0.1384734048950683,186.9979327384449,325.9356689453125,1.4457654
LiRuSnZn,1.13,dft,jarvis_alex,,0.4630702176054373,125.66419036013,317.14666748046875,2.1936815
Cu2MgTi,0.072,dft,jarvis_alex,,0.2962567720942705,166.6854480505729,380.5455322265625,2.4605992
AlZr,2.261,dft,jarvis_alex,,0.4910576075256416,195.69963360054103,444.9181213378906,1.6594834
CaCuH6Pt2,11.46,dft,jarvis_alex,,0.7003798725776568,315.1484341314075,384.8149719238281,1.6669184
AlGeHLa,3.488,dft,jarvis_alex,,0.5686999823322845,174.9369396669036,343.89556884765625,2.4941874
FeOsScTa,0.0,dft,jarvis_alex,,0.1185739326672074,257.42387258292547,355.5592956542969,1.1241888
HfMgNi2,0.061,dft,jarvis_alex,,0.2920956973708664,164.2204869794964,325.6329650878906,2.6457548
H2Y2Zn,0.079,dft,jarvis_alex,,0.2896582067944833,232.9198855953826,381.4790954589844,1.9354192
MoPdTi2,0.0,dft,jarvis_alex,,0.1958911373560497,265.6724951117252,400.1184997558594,1.4114528
Ru3Sc2Zr,0.006,dft,jarvis_alex,,0.2382055216945417,227.00093808881243,394.9460144042969,5.0783243
HfRh2Ti,3.796,dft,jarvis_alex,,0.6160679495833312,148.71181494587006,310.6683349609375,3.7502472
H2Rh2Zn,0.022,dft,jarvis_alex,,0.2551857511713741,308.1051149402176,407.6291809082031,2.157371
Al6NbZr,0.0,dft,jarvis_alex,,0.1476609199019563,311.9128598644345,585.00390625,3.3407266
LuSSc,0.354,dft,jarvis_alex,,0.3572731268247309,169.6662259172587,362.6594543457031,3.115209
As2Mg2Ru2,3.835,dft,jarvis_alex,,0.625879426575348,143.31782368015217,336.2347106933594,5.0468683
BeCrRu2,7.631,dft,jarvis_alex,,0.6744761534350168,232.649927375686,485.1688537597656,1.9132404
CuNi2Zn,0.0,dft,jarvis_alex,,0.0949481571226902,206.2576557932679,379.8762512207031,3.0511808
Re5Rh,5.667,dft,jarvis_alex,,0.6676936865148496,177.4596933765648,413.16741943359375,5.2383084
Pt3Rh,0.653,dft,jarvis_alex,,0.3945640550220669,165.7779753348635,270.50836181640625,8.047506
BePt,0.006,dft,jarvis_alex,,0.2392891140781256,233.93734492018305,364.1681213378906,0.7877241
NbRuTa2,0.048,dft,jarvis_alex,,0.2782693910446655,218.27373718101012,332.1802673339844,2.5721369
Cr3Ta4,1.714,dft,jarvis_alex,,0.4537594419180227,209.5637219644381,349.5693664550781,6.241823
Al3V,0.0,dft,jarvis_alex,,0.0991363335026342,374.6365431027447,693.299560546875,1.089765
HfRu2Sn,0.0,dft,jarvis_alex,,0.030913727899129,246.86367478317032,388.2482604980469,0.049589533
MgRu2Ta,0.091,dft,jarvis_alex,,0.2961648686052775,211.7324485857075,378.3495788574219,3.4507058
MoPtTi2,0.0,dft,jarvis_alex,,0.1859309485976668,262.5048797664457,388.4161682128906,1.5325992
C2NbTa,12.755,dft,jarvis_alex,,0.7446209801482709,302.9713578459664,597.57373046875,1.1678979
HfRh2Sc,0.924,dft,jarvis_alex,,0.4249574275081916,155.83830572273348,302.52838134765625,3.7055898
Cu3Zn,0.0,dft,jarvis_alex,,0.1663177982062401,212.09449728661068,286.4881591796875,0.9478879
Mn4OsTa,8.499,dft,jarvis_alex,,0.6774654853258428,256.1568788892559,404.4659423828125,5.9900966
BeCo2Ti,0.0,dft,jarvis_alex,,0.0993897515964733,325.4668093418957,589.2760009765625,0.27188158
Ni2RuW,0.228,dft,jarvis_alex,,0.3228214460484598,239.41521584185315,420.2818908691406,2.080612
CLiRu2Y,0.091,dft,jarvis_alex,,0.2932894622572102,233.52885677210952,448.4678649902344,3.1510842
Al2Pt,0.852,dft,jarvis_alex,,0.4102824489905237,172.92009059254167,295.6634521484375,1.8686032
W2,0.184,dft,jarvis_alex,,0.3180299587823781,220.1168306615716,364.0716247558594,1.178039
Al3LaMg,0.013,dft,jarvis_alex,,0.2531413676569464,206.0142761532274,316.4979553222656,1.8319993
MgTi2,0.159,dft,jarvis_alex,,0.30647224248293,266.0345817209403,410.7692565917969,1.4758508
HNbRu3,5.36,dft,jarvis_alex,,0.58077678835463,251.4666622371896,466.1731872558594,5.5868435
Re2TiV,0.033,dft,jarvis_alex,,0.2656518530716867,264.33987013116047,405.7351379394531,2.207744
NbOsTcZr,0.0,dft,jarvis_alex,,0.1689537251128147,256.3895440855297,385.1873168945313,1.3836066
PtRhZn2,0.0,dft,jarvis_alex,,0.1209192599312478,160.94440734093834,300.3471374511719,0.81914324
HNi2RuTi,0.004,dft,jarvis_alex,,0.2317217239539739,274.24301403394065,472.5536193847656,4.170388
AlH2Y2,0.176,dft,jarvis_alex,,0.3178086264664514,211.28162547576812,438.9345397949219,1.633981
Ni2SiY,0.486,dft,jarvis_alex,,0.3643520963265176,203.4040268217601,381.5650939941406,2.4757063
GeLiPd,2.283,dft,jarvis_alex,,0.5713631174096897,112.81395405964892,293.9685363769531,0.816046
FeRuTi2,0.0,dft,jarvis_alex,,0.1487010305573249,310.6649745405783,488.0136413574219,0.8122057
F3KPd,0.307,dft,jarvis_alex,,0.3294216409207658,271.5168992086093,304.2906799316406,1.3746035
Be4Ta2,3.379,dft,jarvis_alex,,0.5019968923501738,266.95598967988377,549.7474975585938,3.8687432
NiTc5,6.88,dft,jarvis_alex,,0.6457992145944211,236.3960789910115,512.28955078125,6.9213376
CsCu2P2Sc,0.0,dft,jarvis_alex,,0.1742638444779714,212.86475083533472,321.0251159667969,0.5441645
BeRu2Si,1.496,dft,jarvis_alex,,0.4239408545784737,255.4051546118505,551.6016845703125,2.8058348
S2Sc2,0.14,dft,jarvis_alex,,0.2988965680608337,297.3327477667315,491.9157409667969,2.4376159
NbPdRh2,0.009,dft,jarvis_alex,,0.2451783251844142,221.21509086726093,419.1466674804688,3.516393
GaLiOY2,0.0,dft,jarvis_alex,,0.2044858590808326,223.28067327017044,418.7799987792969,0.85157835
Be2GaV,0.0,dft,jarvis_alex,,0.1471665644281136,424.767374030219,612.76318359375,1.4038653
Be2NiRu,1.362,dft,jarvis_alex,,0.4345599559210049,204.7578556030093,565.85791015625,3.6961832
MgPd5,0.002,dft,jarvis_alex,,0.2298727663455983,177.05839670072194,284.10235595703125,10.374399
AlLi2,1.627,dft,jarvis_alex,,0.433569015147715,247.61085012068588,479.9495544433594,0.65905184
CdNbTi2,7.682,dft,jarvis_alex,,0.830705967227634,144.15542360827988,294.1061096191406,5.0048056
Cr4Ru2,6.2,dft,jarvis_alex,,0.5732745545950538,304.6562027142391,446.2138366699219,4.932096
Ga2LiRu,0.078,dft,jarvis_alex,,0.2929674613750501,203.156589894406,371.9524230957031,1.0033436
AlOsTaTc,0.013,dft,jarvis_alex,,0.2512829327295362,226.38024628560248,402.8334655761719,2.162279
AlLiPtZn,0.307,dft,jarvis_alex,,0.3486526120230962,174.81071591067948,296.701904296875,1.2468549
HMoRe,8.583,dft,jarvis_alex,,0.6756377912172769,258.80629346439946,430.6825256347656,2.3674514
C2Nb4Si2,1.224,dft,jarvis_alex,,0.3873660087844203,346.3303134848586,633.0394287109375,2.672897
AlSiW,1.376,dft,jarvis_alex,,0.4393982845105357,195.8863703555834,555.1512451171875,1.6787615
Al4LuTi2,1.21,dft,jarvis_alex,,0.4134883152107436,235.80379637832075,431.5682678222656,6.4550343
LuNbOs2,0.0,dft,jarvis_alex,,0.1657450559151494,213.4676305534165,305.6148986816406,0.9425209