formula,Tc,tc_source,dataset,pressure_gpa,lambda,wlog,debye_temp,dos_ef
SnTc2Ti,2.858,dft,jarvis_alex,,0.5321545456415947,181.31429240409344,356.7892761230469,4.331032
Al2GaSc,0.03,dft,jarvis_alex,,0.2629843613006567,278.8676581353858,497.4188537597656,1.5791792
AgCd2Rh,0.0,dft,jarvis_alex,,0.1993378859305095,112.70710839153496,229.529541015625,1.495804
Al2LiMg,0.514,dft,jarvis_alex,,0.3506651146789324,281.4989081146332,534.0327758789062,1.1279668
LiNiPt2,0.027,dft,jarvis_alex,,0.2693321644710147,180.91198353073847,295.6846618652344,3.5403025
P2Y2Zr2,1.256,dft,jarvis_alex,,0.4245351396399396,212.99041306045967,411.0368347167969,5.8113027
NbTaTi,19.988,dft,jarvis_alex,,1.8243554017354804,126.17143521795909,272.3523864746094,5.9593697
CuNiZn2,0.003,dft,jarvis_alex,,0.2305426160698004,194.43807529511983,335.3562316894531,2.0966957
Al5RhTi,0.378,dft,jarvis_alex,,0.3402926781598794,258.8275874721264,510.8856201171875,3.4954946
Mo2N4Na2,18.592,dft,jarvis_alex,,0.8981792197984588,299.3718951287055,388.5054626464844,2.9816592
Ti3WZn2,1.074,dft,jarvis_alex,,0.4167512174332326,200.557398480742,399.9081726074219,5.8538156
CuLiZnZr,0.0,dft,jarvis_alex,,0.1097288456917365,212.1719218142894,325.1742553710937,0.535496
AgS2V,0.0,dft,jarvis_alex,,0.1816363981553752,233.6549694527278,325.9367370605469,0.7922628
LiNiZn2,0.015,dft,jarvis_alex,,0.2571575042440867,191.3508501514244,332.0915222167969,1.6614633
InPZr2,0.015,dft,jarvis_alex,,0.2599968586042358,159.86098879392244,348.9232482910156,1.279173
TcTiZn4,0.017,dft,jarvis_alex,,0.2565578100808348,216.8330966781864,399.1660461425781,2.1278234
GaHfRh2,0.002,dft,jarvis_alex,,0.2298840278076988,157.26395411724388,341.93817138671875,1.0924808
AlOs2Si,2.19,dft,jarvis_alex,,0.4978249715791319,179.10385182617773,430.5346374511719,2.1693103
InOScY2,0.729,dft,jarvis_alex,,0.3871511593297006,207.0584628905389,361.4997863769531,3.2675667
Al5Ti2Zr,0.019,dft,jarvis_alex,,0.2526206921255792,305.1977626894051,573.669189453125,4.372868
MoReV2,0.03,dft,jarvis_alex,,0.2613356834699899,298.3046352937614,431.8353576660156,2.9877076
AgGeLi6,0.234,dft,jarvis_alex,,0.3295920574217268,206.476761897206,273.9761657714844,3.2615426
MgSc6Zr,2.252,dft,jarvis_alex,,0.4972554147162617,185.4925417482547,316.16552734375,11.620058
NbPt3Zn2,0.194,dft,jarvis_alex,,0.3277040924128755,179.23197224654157,305.3656616210937,1.4041159
CuMoZr2,3.687,dft,jarvis_alex,,0.5685294552796931,186.1031751680044,306.8092956542969,2.8081894
OsRuZr2,0.0,dft,jarvis_alex,,0.1558433869515793,244.11215616530475,369.5391845703125,1.805469
InRh2Ti,5.282,dft,jarvis_alex,,0.8139719388693825,103.29167970231926,352.4818420410156,1.8754675
As2Ni2,2.383,dft,jarvis_alex,,0.519842861389387,164.7603259889851,333.17840576171875,2.775778
Al2C2V4,0.002,dft,jarvis_alex,,0.2190858189165491,425.4158823986442,686.3677978515625,3.916694
CdSc2Zn,0.064,dft,jarvis_alex,,0.2954275509934136,152.7963908779898,303.1258239746094,3.8277957
Ga2Nb2Zr2,2.969,dft,jarvis_alex,,0.5422883159938554,175.9503189244201,394.9146423339844,5.15651
LuScTc4,13.033,dft,jarvis_alex,,1.243027274783521,126.77522284174404,327.993896484375,7.4925694
MoReTi2,9.882,dft,jarvis_alex,,0.8380938104866857,182.63029029494103,396.6353149414063,7.4894595
TiVW2,6.666,dft,jarvis_alex,,0.6804482630452735,198.1851144872051,377.8104553222656,5.8803487
MnTa2V,1.84,dft,jarvis_alex,,0.4549711066338179,222.2024810753717,322.6776733398437,5.5497823
Sc2Zr2,8.428,dft,jarvis_alex,,0.8974353407665799,136.71849979520346,293.1945495605469,7.207636
AlPdZr,7.291,dft,jarvis_alex,,0.8271557416585293,138.23881405826955,373.8513488769531,2.3457115
ReTc3,15.193,dft,jarvis_alex,,1.0220444252393397,199.2362113749637,460.3258056640625,3.9972608
Re3Ru,9.741,dft,jarvis_alex,,0.8064663603680734,196.46833164346344,429.0534362792969,3.7464547
BaKO4Os,0.029,dft,jarvis_alex,,0.2617781885578652,287.7352621350027,350.9225769042969,5.33027
Cr2IrRu,14.135,dft,jarvis_alex,,0.9612002489602433,203.81275824425583,434.7162170410156,5.106552
MoPtTc2,6.067,dft,jarvis_alex,,0.6406822366104882,213.1759869663436,432.0785217285156,2.7163646
Hf2Sc,7.506,dft,jarvis_alex,,0.8509784732704052,135.04249623160487,254.01217651367188,5.201149
TiZr3,13.084,dft,jarvis_alex,,1.1071455650477198,150.97715536376165,295.9471435546875,6.897547
MnTiV2,5.314,dft,jarvis_alex,,0.566190792627447,271.96899251261203,505.5101318359375,5.371263
N2TiZr,11.585,dft,jarvis_alex,,0.6625934354907871,369.4880508131742,757.5679931640625,1.6789938
LaY3,3.673,dft,jarvis_alex,,0.6681305163509865,114.9804887900035,198.25894165039065,6.05982
Hf2ZnZr3,8.4,dft,jarvis_alex,,0.9389779078104008,125.859676439336,267.5535583496094,8.828088
CaN4Os2Sr,1.953,dft,jarvis_alex,,0.4595346090171463,224.6661747824629,461.2523498535156,3.537655
AuHNbTi2,7.114,dft,jarvis_alex,,0.7073953171239491,191.11586329538923,328.1592712402344,4.719015
H2P2Rh2Y2,3.335,dft,jarvis_alex,,0.4916339130792718,286.5431967773798,466.00592041015625,3.5052207
NbTa2Zr,13.646,dft,jarvis_alex,,1.2658661067041983,130.4920210499559,246.64378356933597,6.2758517
HSc3Y,1.5,dft,jarvis_alex,,0.4433802424435468,204.5601404296756,421.1864929199219,5.93896
PtRhScZr,9.691,dft,jarvis_alex,,1.515961252282808,73.49054275952133,245.6094512939453,5.6972284
Nb2Tc3W,4.133,dft,jarvis_alex,,0.5568676241410132,223.8570446735944,411.6539611816406,2.9510872
La2ScY,4.786,dft,jarvis_alex,,0.7690840280791019,106.3929495561058,197.3828887939453,4.7069707
HfV2,13.696,dft,jarvis_alex,,0.9277008287626786,210.22611715601323,313.9974670410156,4.496851
O2P2Ru2Y2,0.028,dft,jarvis_alex,,0.2657859133557074,222.7276212906366,438.7611999511719,3.6134908
AgOTi2Zr,3.574,dft,jarvis_alex,,0.596637968117183,153.75860580894113,383.9073181152344,4.890772
MoNb2Ta,4.945,dft,jarvis_alex,,0.6136197439006225,196.3589784574748,281.0241394042969,4.8677554
HPtTc2V,9.264,dft,jarvis_alex,,0.7464321208420641,219.07019472470225,457.8223571777344,4.405508
Mn4ReTc,5.767,dft,jarvis_alex,,0.5798685627653001,272.8566712983391,445.9588317871094,3.924727
Mo2NiTc,4.468,dft,jarvis_alex,,0.5807389949013615,210.4737596888887,454.6175842285156,3.2081711
As2H2Ru2Y2,2.429,dft,jarvis_alex,,0.4879846084231675,215.1180103512137,389.2143859863281,4.905186
RhTc2W,5.795,dft,jarvis_alex,,0.637127573964243,206.72715156946003,467.2782897949219,3.549517
GaRhZr,7.751,dft,jarvis_alex,,0.8658053631311792,134.59627041357737,353.8739318847656,2.418338
HTaTi2Zn,4.477,dft,jarvis_alex,,0.5747051547842068,217.2445423960899,357.8979187011719,3.8084402
IrMo2Rh,1.349,dft,jarvis_alex,,0.4208276581247331,239.76080531717807,458.6292419433594,3.0102258
Mo3Tc,10.437,dft,jarvis_alex,,0.7633304290963797,236.98368768667112,431.3949279785156,3.340705
MgSc2Y3,3.448,dft,jarvis_alex,,0.6573002528789771,112.18727633377004,266.9249572753906,11.232894
HNbTi2Tl,3.261,dft,jarvis_alex,,0.5272266835017236,213.81124117860256,334.046630859375,4.7116575
SbZr3,2.724,dft,jarvis_alex,,0.5461583256528291,157.50957098015803,324.0111694335937,4.5064797
RhTaTcTi,3.542,dft,jarvis_alex,,0.5561349547152072,192.5116686180869,404.3238830566406,3.8824043
Re3Tc,11.103,dft,jarvis_alex,,0.8720299932259397,191.6409193280033,421.6142883300781,3.2845757
HfTa2,10.265,dft,jarvis_alex,,1.0331508881192155,131.93027452102908,235.8639678955078,4.070882
As2La2Rh2,7.258,dft,jarvis_alex,,0.9683955544259412,102.92468128177931,269.6793518066406,9.513146
NbTa,13.123,dft,jarvis_alex,,1.191032982483373,135.74296491364845,257.5190734863281,3.2765446
CdZr5,8.249,dft,jarvis_alex,,0.8877172251690029,136.7798466352577,243.75,7.1338825
HHf3Sn,6.887,dft,jarvis_alex,,0.9235242926523036,105.13223542846984,294.6403503417969,5.251589
V2Zr2,11.883,dft,jarvis_alex,,0.9067560387100227,189.72380477933524,285.7427062988281,4.6850653
AuHNb2Ti,10.871,dft,jarvis_alex,,0.9641469736113978,154.27767678910138,354.3890686035156,5.3090873
CMo2Pt,6.588,dft,jarvis_alex,,0.6836412541407354,192.6770708266704,516.2076416015625,2.489984
MoNbV,3.169,dft,jarvis_alex,,0.5125865205955502,231.3689698129216,337.6156616210937,4.2145104
Mo2OsRh,12.861,dft,jarvis_alex,,1.0638820353562306,156.63481351093014,441.4499816894531,4.2052574
TaTcTi2,8.55,dft,jarvis_alex,,0.8120607098646815,168.37714691473107,343.0390319824219,4.80928
NbTaZr,12.359,dft,jarvis_alex,,1.0414911269245246,156.5832457621766,257.1463317871094,4.159367
La,11.884,dft,jarvis_alex,,2.086044109024958,68.52714283804501,155.4955291748047,2.6579568
OsRu2Ta,7.594,dft,jarvis_alex,,0.7296755353792401,190.82248635229905,395.0699768066406,5.5280476
La2P2Rh2,10.368,dft,jarvis_alex,,1.4772138040478164,80.41257852181458,289.9888000488281,5.224222
CuTi2V,13.06,dft,jarvis_alex,,1.006060293431761,173.53605384356445,388.2151184082031,5.266827
Os3W,4.34,dft,jarvis_alex,,0.5900600121237878,194.84807386408028,425.0437927246094,4.396141
Mo2N4Zn2,0.0,dft,jarvis_alex,,0.0808920740448676,422.7690840320213,538.2827758789062,0.19668773
NbVW,3.066,dft,jarvis_alex,,0.5223678870108273,208.166063857056,342.0212707519531,3.8420866
HfMoNbTa,13.414,dft,jarvis_alex,,1.175962607532845,141.70477156255086,296.7228698730469,6.1167064
NPtRe,8.374,dft,jarvis_alex,,0.7092937447392248,223.31472099221008,407.1395568847656,2.2839105
HPtTcV2,9.285,dft,jarvis_alex,,0.7490709937906073,217.8870843194601,455.8396301269531,5.489435
MoNbZr,8.963,dft,jarvis_alex,,0.8125739534920394,177.10380990117645,327.3623352050781,3.3668513
HMoRuTc2,14.348,dft,jarvis_alex,,0.9407525536595472,213.19568082603465,491.86517333984375,4.7303863
AlHNb2Ta,10.795,dft,jarvis_alex,,1.5520451460668534,78.82778365523129,372.9573669433594,4.2585654
MoReW2,9.401,dft,jarvis_alex,,0.7890710443579334,198.39285214607068,383.6869812011719,3.8533475
MoTa3,4.847,dft,jarvis_alex,,0.6410070514636922,169.66353767960797,309.8387756347656,4.5391145
IrRhRu2,2.646,dft,jarvis_alex,,0.4804967296268995,251.5521700590676,469.8690490722656,6.6734548
MoV3,7.634,dft,jarvis_alex,,0.6743859726640666,232.57660072521776,406.79302978515625,5.1778765
IrMo2Tc,10.121,dft,jarvis_alex,,0.8221249513203425,195.7365206009024,457.0439453125,4.892619
In4,4.667,dft,jarvis_alex,,0.9473576097959572,68.60915357546558,99.25189208984376,3.0160253
Mo2NbZr,6.938,dft,jarvis_alex,,0.7098533669207305,185.88512344552825,365.4833679199219,4.501927
Ir2Ru2,3.421,dft,jarvis_alex,,0.5150601931498093,245.8967362398694,453.9536437988281,4.672872
LuTc4Zr,15.74,dft,jarvis_alex,,1.5187579105835831,119.83039103030296,310.72467041015625,10.370209
OsTc3,7.341,dft,jarvis_alex,,0.6581130624666117,239.6157700526593,490.2721862792969,3.6419773
NbPdZr2,11.064,dft,jarvis_alex,,1.0151919551199446,145.75150033341066,289.74346923828125,4.8219256
LaLuSc,5.668,dft,jarvis_alex,,0.8356055768306874,105.66408440318062,197.7378387451172,5.042194
NbOsReTa,7.851,dft,jarvis_alex,,0.7852452104496915,166.9560767163737,353.236572265625,2.6271298
Rh2Zr4,12.194,dft,jarvis_alex,,1.2502017494294866,118.01641375397828,130.82518005371094,10.516652
MoReRu2,8.31,dft,jarvis_alex,,0.7275370345686559,210.5145989983898,456.3626708984375,4.291138
HfRhTi2,3.282,dft,jarvis_alex,,0.5371675183838208,201.29767710251232,322.53204345703125,5.05655
HHfTi3,20.133,dft,jarvis_alex,,1.6978186500481482,134.65209668590657,360.0121765136719,8.006881
HNb2SnZr,5.838,dft,jarvis_alex,,0.7455553605496269,138.1318073044751,388.1935424804688,3.7668972
Ti2Zr2,12.02,dft,jarvis_alex,,1.0291667777460591,154.32266462718707,316.1334533691406,5.060214
NbV2W,7.824,dft,jarvis_alex,,0.7369048065303315,190.87603873434432,341.1127319335937,6.022829
MoNbTiW,4.276,dft,jarvis_alex,,0.5630689394355467,222.8052462038617,366.7806701660156,4.78522
GaIrNb6,8.145,dft,jarvis_alex,,0.7185436566530762,212.2941912207984,347.9602355957031,7.837788
AuNbTa2,2.782,dft,jarvis_alex,,0.5576272262272665,149.65358776947272,264.0971984863281,3.294666
Nb2TiZr,18.374,dft,jarvis_alex,,2.2413960752133697,93.35222803746174,279.5442810058594,5.5745997
H2Ru2,14.751,dft,jarvis_alex,,0.9381651958220754,219.143825171929,532.7401733398438,3.207081
H2P2Ru2Y2,1.44,dft,jarvis_alex,,0.4195325921423172,259.1134878851984,467.5061645507813,4.2657127
CrNb2Rh,9.011,dft,jarvis_alex,,0.9092129874182784,142.2359345575926,352.2569274902344,3.6325433
NbRu3,9.489,dft,jarvis_alex,,0.7779815039701572,206.46160429984727,462.5523376464844,4.61552
CdRh2Zr3,9.019,dft,jarvis_alex,,1.0173623665745195,117.95673970175744,253.9182586669922,5.266042
NbTi,20.91,dft,jarvis_alex,,1.823773908626486,131.9381509940074,298.3688049316406,3.5340168
MoTaV2,8.24,dft,jarvis_alex,,0.7555415440309896,189.8624804016181,352.8803405761719,5.345712
OsRhTc2,11.428,dft,jarvis_alex,,0.844507538321207,210.0103005813189,503.6442260742188,3.3812711
CHfNTa,7.165,dft,jarvis_alex,,0.6134032368403426,283.3284981139879,442.4465026855469,0.9338255
GeIrZr,9.831,dft,jarvis_alex,,1.057965913365483,120.63977746038526,331.5914001464844,2.5108593
BiInTl,6.476,dft,jarvis_alex,,1.6366614702315394,45.3337149222759,105.55863189697266,2.4516025
C2MoW,0.0,dft,jarvis_alex,,0.165118278911984,503.8676217938263,670.2503662109375,0.42131957
Os2TcW,9.308,dft,jarvis_alex,,0.7975497075255938,192.07275543704927,450.4980773925781,4.6194506
LaScY2,5.942,dft,jarvis_alex,,0.8800228223270704,100.02859703738548,209.41661071777344,6.935004
ReTc3,15.235,dft,jarvis_alex,,1.0085757741332328,204.16741280552893,470.3555603027344,4.0301294
CrHRhRu2,8.559,dft,jarvis_alex,,0.6950354038460393,240.6570935794951,470.67529296875,4.3685966
LaLu2Sc,4.823,dft,jarvis_alex,,0.8029223523607549,97.56833893489316,186.32662963867188,7.871096
HIrMo2Re,8.314,dft,jarvis_alex,,0.7321916053587836,205.6907297681104,415.7013244628906,3.6542504
CrMoRe,14.727,dft,jarvis_alex,,0.9302479628205564,225.41210719554573,412.7524719238281,3.300776
Hf2IrNb,11.728,dft,jarvis_alex,,1.3246707235048487,104.97342678862574,285.9518737792969,6.2420897
MoRhV2,8.915,dft,jarvis_alex,,0.7543926398780848,207.05597234581128,441.6586608886719,4.9103084
HfTi,5.209,dft,jarvis_alex,,0.7352622693186551,127.5472952287594,282.15631103515625,1.6728159
Ta2Zr2,11.511,dft,jarvis_alex,,1.0363152093285397,147.19946287538252,256.48541259765625,5.3158164
Mo2ReW,9.525,dft,jarvis_alex,,0.7760760433525018,208.1684365931864,398.54052734375,3.1693032
CuScY2,2.533,dft,jarvis_alex,,0.5595866334290257,134.68109771929673,280.2467346191406,6.916257
HfMo2Ta,5.266,dft,jarvis_alex,,0.6542055631247711,174.09720904623586,341.76617431640625,5.6827874
ReRu2W,6.945,dft,jarvis_alex,,0.6952619049581191,196.36602978407896,433.4962463378906,4.5652757
AlNbZr2,11.205,dft,jarvis_alex,,1.0417584442473429,141.36482994482773,346.9562072753906,5.9034085
IrRu2,3.516,dft,jarvis_alex,,0.5131628247721225,256.2968958999588,478.7023010253906,3.398327
HfMo2Nb,6.316,dft,jarvis_alex,,0.7073667718456196,170.4238151107287,348.9454650878906,5.706189
Re3Ru,5.433,dft,jarvis_alex,,0.6249097147819842,204.88953826589963,431.2508239746094,3.2567735
LuSc3,2.38,dft,jarvis_alex,,0.5234951515353087,160.37235876234445,268.98486328125,7.9646387
Re2Ru2,2.669,dft,jarvis_alex,,0.490484178967518,232.66772573344088,461.40576171875,3.864163
BiF6Zn,5.783,dft,jarvis_alex,,0.7216392708825305,148.0070470790512,246.08555603027344,2.4029763
AlCoFeHf,0.0,dft,jarvis_alex,,0.080698859253903,290.7207125529061,458.1379699707031,0.056878764
HfLiN4Zr2,1.242,dft,jarvis_alex,,0.3737954230808953,439.4047785564968,536.7384033203125,1.4740652
HMoRu2,8.545,dft,jarvis_alex,,0.7179045938545998,221.49884391693,491.20257568359375,3.4509022
Cr2ReTc,22.834,dft,jarvis_alex,,1.3424747801087202,204.5213992083027,429.4028015136719,4.913188
Os2RhV,6.892,dft,jarvis_alex,,0.6820006551962223,204.5160449741643,441.7465515136719,3.749036
Nb4Pd2,2.612,dft,jarvis_alex,,0.5164873006060873,185.1769624988069,307.2312316894531,4.6297975
Sn2,5.504,dft,jarvis_alex,,0.8790485204924403,92.86881551866246,188.21730041503903,1.0445962
Hf3Sc,8.913,dft,jarvis_alex,,0.9784771073622268,124.6324196148275,246.52659606933597,6.1573496
Mn4MoOs,4.862,dft,jarvis_alex,,0.5482114784039623,277.63838067087323,458.8022155761719,3.4812794
HIrRu2,4.252,dft,jarvis_alex,,0.5466553891592167,244.4001869792985,496.88427734375,4.081333
La2LuSc,3.555,dft,jarvis_alex,,0.6732002493407901,108.93503977191618,189.01889038085935,5.783544
OsRuW2,7.533,dft,jarvis_alex,,0.7702971893389853,167.10086409624458,425.8966064453125,3.4880428
MoNb2Rh,10.127,dft,jarvis_alex,,0.93587806100017,152.62438007429645,389.1343688964844,4.5173736
C4ScTa2Zr,1.692,dft,jarvis_alex,,0.404049706465013,374.02851393793446,562.0042114257812,2.9532654
HfNbOs2,8.996,dft,jarvis_alex,,0.8547848816100994,160.95794603271983,340.1214599609375,3.6446376
MoReTi2,7.886,dft,jarvis_alex,,0.7142728275085418,207.90366460271773,373.4108581542969,5.9474645
NbRhTaW,3.832,dft,jarvis_alex,,0.5841684258137353,177.25307156527498,350.5969543457031,3.783656
Mo2TiV,9.093,dft,jarvis_alex,,0.7477843535036394,215.095921398582,443.4278259277344,5.836567
CoCr2HTc,8.553,dft,jarvis_alex,,0.7412494810327035,205.34237003508304,539.3250732421875,4.411224
HIrOsTa2,7.921,dft,jarvis_alex,,1.0041689724188982,104.64936385482606,328.4420166015625,4.1498046
MnNbZr,1.332,dft,jarvis_alex,,0.4287791401819003,214.6417333269072,356.988037109375,2.8102248
Ba2Pb4,4.602,dft,jarvis_alex,,1.319790953461316,41.38775041849183,117.15904998779295,7.6214094
HfZr,10.634,dft,jarvis_alex,,1.0633578513365605,130.38129918063385,239.8090057373047,3.451138
H2LiPd,35.631,dft,jarvis_alex,,0.9602165341333692,508.3735132804276,385.421630859375,0.5328235
Re2RuTc,11.776,dft,jarvis_alex,,0.8732817953682924,202.69127634636064,454.1109924316406,3.7015233
H3NbRh,2.512,dft,jarvis_alex,,0.432190914581493,387.8476797161928,452.9093933105469,1.6854066
H3Hf,9.671,dft,jarvis_alex,,0.553025622160901,533.1912843852622,508.9475402832031,1.6703129
BeMoTi2,10.08,dft,jarvis_alex,,0.8024120886583248,203.4074297309779,531.02734375,4.952151
Ru2TcW,8.528,dft,jarvis_alex,,0.7357365019549637,210.34187115222144,468.68109130859375,5.6090946
IrMo2Rh,1.457,dft,jarvis_alex,,0.4271448541709182,239.7408605032336,458.4513854980469,2.336249
ScY2,2.959,dft,jarvis_alex,,0.5749172398485881,143.9859061463942,257.2428894042969,4.901851
CNNbTa,9.52,dft,jarvis_alex,,0.6356462825302938,339.8283839562891,598.0491943359375,1.8864615
TiZr5,6.612,dft,jarvis_alex,,0.7644607386628023,148.70666857194058,283.9653625488281,4.738387
AgTi2Zr3,9.057,dft,jarvis_alex,,0.8278110308463625,172.41920973859771,304.7829284667969,6.9845924
Os2RuTa,7.332,dft,jarvis_alex,,0.7487483868384386,173.5379530985355,398.7492370605469,3.8814108
MoOs3,2.581,dft,jarvis_alex,,0.4867483711511182,232.1849671793174,445.0301513671875,2.705866
TaV2W,6.117,dft,jarvis_alex,,0.6537843015259454,202.2612996830233,348.3638916015625,6.0208397
Sc2YZr,4.032,dft,jarvis_alex,,0.6017298686218479,170.02187846870473,293.4246826171875,6.531374
HfOsRuTa,6.924,dft,jarvis_alex,,0.8327963765095058,129.66977890866065,338.9802551269531,2.5868409
LaScY,3.694,dft,jarvis_alex,,0.6746135514343411,112.49310607293006,213.56092834472656,5.500296
HMo2PdTc,7.292,dft,jarvis_alex,,0.6669057989255468,228.00037959305192,444.4848937988281,3.0164757
Re4ScZr,10.23,dft,jarvis_alex,,0.9327716346203206,155.3798908163253,287.7527160644531,7.458069
HfTiZr2,16.484,dft,jarvis_alex,,1.709555923083253,111.40133100540297,280.2381896972656,7.440178
NbTlZr2,7.593,dft,jarvis_alex,,0.8629732362255085,132.81357331292563,286.6600036621094,5.8109045
HfTi3,7.184,dft,jarvis_alex,,0.786320562781115,151.31108819203325,308.4881286621094,3.5380404
MoPtTc2,7.895,dft,jarvis_alex,,0.7191591585569648,205.53145497746124,430.8424377441406,3.8954499
Mo2TaTi,6.457,dft,jarvis_alex,,0.6591969298743554,209.25559010667223,394.0787353515625,4.830641
LaY3,5.67,dft,jarvis_alex,,0.8546637378875268,101.2888205336018,202.36317443847656,6.905049
H2W2,3.565,dft,jarvis_alex,,0.5142666851075451,256.09650260433256,409.2771301269531,1.3874406
MoReRu2,8.645,dft,jarvis_alex,,0.7420254605742325,209.0696545657873,458.1695556640625,5.7296686
BiPb,7.862,dft,jarvis_alex,,1.9622477387750723,46.539202475829455,108.51245880126952,0.9391457