formula,Tc,tc_source,dataset,pressure_gpa,lambda,wlog,debye_temp,dos_ef
HMgTiZr2,2.646,dft,jarvis_alex,,0.4960384896527723,219.4790026034395,421.219482421875,3.475673
BeMoTi2,6.033,dft,jarvis_alex,,0.6035710194456673,251.37759762143045,462.7356872558594,4.3415236
Nb3Pd,4.6,dft,jarvis_alex,,0.6139331083793117,182.2295175513979,331.3387145996094,3.9021857
Mo2ReW,9.362,dft,jarvis_alex,,0.7723320402605633,206.6601651502926,381.9598083496094,3.6458383
TaZnZr2,9.442,dft,jarvis_alex,,1.008582503417188,125.21627201610552,273.9538879394531,4.6183224
HRhRuV2,11.246,dft,jarvis_alex,,0.9820542779806652,154.28438130199277,461.1302185058594,5.6400166
Re2Tc2,12.976,dft,jarvis_alex,,0.9483924821584496,192.31861860791048,444.5680847167969,4.3222947
P2Rh2Y2,10.102,dft,jarvis_alex,,0.934997879313738,152.1690269216622,378.2738952636719,4.3093185
HInNb2V,5.832,dft,jarvis_alex,,0.6953072433939106,163.47248650315146,359.5248107910156,3.5862107
RhTc3,7.858,dft,jarvis_alex,,0.6746796119942627,240.26543179094008,487.5428161621094,3.857152
HIrOsV2,11.29,dft,jarvis_alex,,0.9028651363177262,179.9320811070402,417.3277282714844,5.80807
IrMo2Ru,11.342,dft,jarvis_alex,,0.8808596171664315,191.3560720693099,450.6048278808594,3.8476272
Lu3Zr,2.335,dft,jarvis_alex,,0.5510524906809976,131.1813037974103,223.2030487060547,6.984999
HNbRu2Tc,12.511,dft,jarvis_alex,,0.8769253370224612,211.09501811419835,483.5935668945313,5.6590934
HfZr3,5.752,dft,jarvis_alex,,0.7254173886893076,146.2318507143216,253.0653533935547,2.8363075
TcTi3,5.777,dft,jarvis_alex,,0.5978540595678669,248.5976838889068,402.9279479980469,4.6304903
HMo2RhRu,8.305,dft,jarvis_alex,,0.74031647441937,200.01712218693825,443.2179870605469,3.3194668
CuNbTi2,8.566,dft,jarvis_alex,,0.7705125378678134,189.4411538974804,367.5025329589844,4.0107765
Re2RuTc,11.388,dft,jarvis_alex,,0.8634913983771415,200.29399247093983,455.9953918457031,4.226919
RbS2Zr,6.721,dft,jarvis_alex,,0.8719715217712836,114.41740732354673,284.8818054199219,2.1488187
Al3H8Nb,37.6,dft_predicted,htsc_2025,0,,,,
Al3H8Sc,31.1,dft_predicted,htsc_2025,0,,,,
Ca3FeH8,61.9,dft_predicted,htsc_2025,0,,,,
Ca3H8Li,6.7,dft_predicted,htsc_2025,0,,,,
Ca3H8Mn,32.5,dft_predicted,htsc_2025,0,,,,
Ca3H8Na,5.9,dft_predicted,htsc_2025,0,,,,
Ca3H8Nb,0.09,dft_predicted,htsc_2025,0,,,,
Ca3H8W,0.11,dft_predicted,htsc_2025,0,,,,
Ca3H8Y,0.03,dft_predicted,htsc_2025,0,,,,
H8LiMg3,15.2,dft_predicted,htsc_2025,0,,,,
H8Mg3Os,73.0,dft_predicted,htsc_2025,0,,,,
H8Mg3Re,20.5,dft_predicted,htsc_2025,0,,,,
H8Mg3Ru,33.61,dft_predicted,htsc_2025,0,,,,
H8Mg3Tc,18.67,dft_predicted,htsc_2025,0,,,,
H8Mg3Ti,18.5,dft_predicted,htsc_2025,0,,,,
H8OsSr3,0.08,dft_predicted,htsc_2025,0,,,,
H8RuSr3,10.9,dft_predicted,htsc_2025,0,,,,
H8Sr3Tc,0.01,dft_predicted,htsc_2025,0,,,,
FeGaH3,0.5,dft_predicted,htsc_2025,0,,,,
H3InNi,15.6,dft_predicted,htsc_2025,0,,,,
H3InPd,18.7,dft_predicted,htsc_2025,0,,,,
H3HgK,0.1,dft_predicted,htsc_2025,0,,,,
H3KSc,3.7,dft_predicted,htsc_2025,0,,,,
CdH3Rb,1.1,dft_predicted,htsc_2025,0,,,,
AuH3Sr,131.9,dft_predicted,htsc_2025,0,,,,
H3ScSr,2.4,dft_predicted,htsc_2025,0,,,,
H3SrTc,68.6,dft_predicted,htsc_2025,0,,,,
H3SrZn,107.3,dft_predicted,htsc_2025,0,,,,
CuH6Li2,86.0,dft_predicted,htsc_2025,0,,,,
H6Mg2Pt,78.3,dft_predicted,htsc_2025,0,,,,
H6Mg2Pd,63.8,dft_predicted,htsc_2025,0,,,,
H6IrMg2,160.0,dft_predicted,htsc_2025,0,,,,
H6Mg2Rh,53.8,dft_predicted,htsc_2025,0,,,,
AgH6Na2,89.0,dft_predicted,htsc_2025,0,,,,
Al2H6Mn,43.9,dft_predicted,htsc_2025,0,,,,
Al2H6Tc,43.1,dft_predicted,htsc_2025,0,,,,
Al2H6Re,36.4,dft_predicted,htsc_2025,0,,,,
AgCa2H6,35.9,dft_predicted,htsc_2025,0,,,,
Ca2H6Li,33.0,dft_predicted,htsc_2025,0,,,,
AuH6Na2,31.6,dft_predicted,htsc_2025,0,,,,
CuH6Na2,56.0,dft_predicted,htsc_2025,0,,,,
Ga2H6Ru,26.9,dft_predicted,htsc_2025,0,,,,
H6Mg2Ni,22.7,dft_predicted,htsc_2025,0,,,,
Ga2H6Os,20.9,dft_predicted,htsc_2025,0,,,,
H3InK,72.9,dft_predicted,htsc_2025,0,,,,
AlH3Hg,28.4,dft_predicted,htsc_2025,0,,,,
H3HgPb,25.8,dft_predicted,htsc_2025,0,,,,
H3OsPb,23.2,dft_predicted,htsc_2025,0,,,,
CuH6InK2,53.0,dft_predicted,htsc_2025,0,,,,
CuH6K2Li,53.0,dft_predicted,htsc_2025,0,,,,
CuH6LiNa2,43.0,dft_predicted,htsc_2025,0,,,,
H6Na2PdSi,39.8,dft_predicted,htsc_2025,0,,,,
H6LiNa2Zn,37.8,dft_predicted,htsc_2025,0,,,,
GaH6Na2Ru,35.2,dft_predicted,htsc_2025,0,,,,
Cs2H6NaSn,34.5,dft_predicted,htsc_2025,0,,,,
AlH6HgK2,32.5,dft_predicted,htsc_2025,0,,,,
AuH6HgK2,32.5,dft_predicted,htsc_2025,0,,,,
AgH6InK2,31.7,dft_predicted,htsc_2025,0,,,,
AlH6HgRb2,31.4,dft_predicted,htsc_2025,0,,,,
CdCuH6Na2,26.0,dft_predicted,htsc_2025,0,,,,
CuH6MgNa2,24.7,dft_predicted,htsc_2025,0,,,,
CuH6Pb2Ru,23.7,dft_predicted,htsc_2025,0,,,,
AlCdH6K2,21.0,dft_predicted,htsc_2025,0,,,,
H3NaPd,29.3,dft_predicted,htsc_2025,0,,,,
BeH6KPt,39.9,dft_predicted,htsc_2025,0,,,,
BeH6PtRb,37.9,dft_predicted,htsc_2025,0,,,,
BeCsH6Pt,30.9,dft_predicted,htsc_2025,0,,,,
CuGaH6Li2,37.9,dft_predicted,htsc_2025,0,,,,
AgCdH6K2,27.5,dft_predicted,htsc_2025,0,,,,
H6IrNa2Pd,0.996666667,dft_predicted,htsc_2025,0,,,,
Ca2CuH6,16.0,dft_predicted,htsc_2025,0,,,,
CuH6K2,16.0,dft_predicted,htsc_2025,0,,,,
CdCuH6K2,8.9,dft_predicted,htsc_2025,0,,,,
CuGaH6K2,68.0,dft_predicted,htsc_2025,0,,,,
H6K2LiZn,25.5,dft_predicted,htsc_2025,0,,,,
AuH6Li2,140.0,dft_predicted,htsc_2025,0,,,,
CuGaH6Na2,42.0,dft_predicted,htsc_2025,0,,,,
AgH6LiNa2,86.0,dft_predicted,htsc_2025,0,,,,
B8CCa,77.1,dft_predicted,htsc_2025,0,,,,
B8CSr,64.4,dft_predicted,htsc_2025,0,,,,
B8BaC,53.2,dft_predicted,htsc_2025,0,,,,
B5N5Na,8.0,dft_predicted,htsc_2025,0,,,,
AlB5N5,22.0,dft_predicted,htsc_2025,0,,,,
B5InN5,15.0,dft_predicted,htsc_2025,0,,,,
B5LaN5,69.2,dft_predicted,htsc_2025,0,,,,
B5N5Y,59.1,dft_predicted,htsc_2025,0,,,,
B6C6KPb,88.0,dft_predicted,htsc_2025,0,,,,
B6BaC6Rb,68.0,dft_predicted,htsc_2025,0,,,,
B4LiN4,67.0,dft_predicted,htsc_2025,0,,,,
B4MgN4,45.0,dft_predicted,htsc_2025,0,,,,
B2Mg,40.0,dft_predicted,htsc_2025,0,,,,
TcV,2.692059031287939,dft_predicted,htsc_2025,0,,,,
Ga2Y,3.880585767231253,dft_predicted,htsc_2025,0,,,,
Cr2Ta,2.2706574935256145,dft_predicted,htsc_2025,0,,,,
AlSc2,3.4179466814301698,dft_predicted,htsc_2025,0,,,,
PtV3,10.252900248610622,dft_predicted,htsc_2025,0,,,,
ClF2,3.1624278807028263,dft_predicted,htsc_2025,0,,,,
Co2N,1.3462790100846205,dft_predicted,htsc_2025,0,,,,
BeCrO2,8.001262534212506,dft_predicted,htsc_2025,0,,,,
AlCuSc2,1.5193445868541229,dft_predicted,htsc_2025,0,,,,
TcTi2Zn,5.187625893473962,dft_predicted,htsc_2025,0,,,,
N3V2,4.438017463587193,dft_predicted,htsc_2025,0,,,,
IV,7.343131012204479,dft_predicted,htsc_2025,0,,,,
Mn,22.89828034331856,dft_predicted,htsc_2025,0,,,,
Be2ScTa,1.7548659672675073,dft_predicted,htsc_2025,0,,,,
ScZr,10.274138389874741,dft_predicted,htsc_2025,0,,,,
B2P2Sr,8.562368527722716,dft_predicted,htsc_2025,0,,,,
Nb3Si,16.501426785688462,dft_predicted,htsc_2025,0,,,,
OTi,12.64296988949285,dft_predicted,htsc_2025,0,,,,
MnSc2Si,1.3523230715368693,dft_predicted,htsc_2025,0,,,,
CTi,1.780454042509233,dft_predicted,htsc_2025,0,,,,
Be2MnTc,2.0408807634939587,dft_predicted,htsc_2025,0,,,,
Sc2TcZn,3.5767764801835447,dft_predicted,htsc_2025,0,,,,
Sc,1.004402381323307,dft_predicted,htsc_2025,0,,,,
MgO2Ta,7.9398218453862,dft_predicted,htsc_2025,0,,,,
HfRu2Ta,5.482294902381675,dft_predicted,htsc_2025,0,,,,
AsFeTi,3.838018723086169,dft_predicted,htsc_2025,0,,,,
Be2ScZr,2.4648487462379336,dft_predicted,htsc_2025,0,,,,
AgGaSc2,2.3599742455663124,dft_predicted,htsc_2025,0,,,,
AsNi,1.9463578644457673,dft_predicted,htsc_2025,0,,,,
AsPdTi,1.6948388762655147,dft_predicted,htsc_2025,0,,,,
AlOs,3.593654268732837,dft_predicted,htsc_2025,0,,,,
AsCr3,3.916931927178963,dft_predicted,htsc_2025,0,,,,
Re3W,2.11246036981921,dft_predicted,htsc_2025,0,,,,
FOTi,2.144381215985513,dft_predicted,htsc_2025,0,,,,
NZr,9.735513975848821,dft_predicted,htsc_2025,0,,,,
Co2Hf,4.245739356933599,dft_predicted,htsc_2025,0,,,,
RuV,20.255119548750272,dft_predicted,htsc_2025,0,,,,
Ca2GaLi,3.8466898245104586,dft_predicted,htsc_2025,0,,,,
Be2PdZn,3.396552570666099,dft_predicted,htsc_2025,0,,,,
AlLi,5.635780347446996,dft_predicted,htsc_2025,0,,,,
CNb,17.155451017952267,dft_predicted,htsc_2025,0,,,,
F2NaSc,3.054491261722683,dft_predicted,htsc_2025,0,,,,
Be2RhSc,4.173574102218019,dft_predicted,htsc_2025,0,,,,
CrSi,2.2766822500725916,dft_predicted,htsc_2025,0,,,,
BeHfZn2,3.305553838277494,dft_predicted,htsc_2025,0,,,,
BeGeV2,3.2189477555721604,dft_predicted,htsc_2025,0,,,,
Os2TaTi,6.619792726203233,dft_predicted,htsc_2025,0,,,,
CrH,10.682442187413654,dft_predicted,htsc_2025,0,,,,
HfTc,2.548903687202566,dft_predicted,htsc_2025,0,,,,