formula,Tc,tc_source,dataset,pressure_gpa,lambda,wlog,debye_temp,dos_ef
CoCr2Ir,4.947,dft,jarvis_alex,,0.5617640282795423,260.04575772100657,517.7432250976562,3.5780349
NbSiTi2,2.561,dft,jarvis_alex,,0.4727628371546413,260.6932467521713,457.3346252441406,4.475699
Mo2Tc,15.693,dft,jarvis_alex,,0.9780747164356474,221.21863002365728,432.9168090820313,1.954357
NOTi2,19.251,dft,jarvis_alex,,0.821608293343252,371.4317918065608,747.900390625,2.620847
CTc2,3.301,dft,jarvis_alex,,0.4673195353519928,352.7888475946668,618.4544677734375,1.7387304
C2HfMo,0.0,dft,jarvis_alex,,0.0545125902819488,428.0821040989909,575.4483642578125,0.28662926
MoTaTc2,8.795,dft,jarvis_alex,,0.7300047578568168,221.0856141427732,381.7123107910156,2.3962777
HIrRuV2,11.791,dft,jarvis_alex,,0.975582544159724,163.65648916979606,441.7941284179688,5.764682
Mo3Zr4,3.468,dft,jarvis_alex,,0.5600197260684353,184.04481796464293,301.3402404785156,6.0515146
TcZr5,10.534,dft,jarvis_alex,,0.9653026132315335,150.99415763281368,294.10498046875,6.5812716
HMo2PtRe,7.899,dft,jarvis_alex,,0.7088992113073949,211.0429970476086,400.5824279785156,3.2530649
La3Sc,9.57,dft,jarvis_alex,,1.437314065326322,78.4023979007266,186.17247009277344,7.1200986
IrRu2Tc,9.318,dft,jarvis_alex,,0.7401569466530319,226.9930304715782,500.2756042480469,3.4782443
IrTc2W,6.35,dft,jarvis_alex,,0.6540664785894177,210.73298097399035,470.8886413574219,4.5194116
ScZr2,12.136,dft,jarvis_alex,,1.1742087623007031,128.2189542721703,294.2833557128906,4.830474
Lu,1.854,dft,jarvis_alex,,0.5510733810608645,104.0872819426508,193.53623962402344,1.6017556
LaSc2Y,4.816,dft,jarvis_alex,,0.775092364211859,104.83702322697212,232.9176025390625,6.834725
HfMnTa2,2.885,dft,jarvis_alex,,0.5469256491648585,165.88573240218764,290.9110717773437,4.1074634
MoTcW,16.918,dft,jarvis_alex,,1.2572688902319578,164.21278311192674,417.3794250488281,2.762422
MoTcZr2,7.3,dft,jarvis_alex,,0.7371839405444587,178.9330596338813,335.30938720703125,4.5843043
PdZr5,8.748,dft,jarvis_alex,,1.03254793971825,111.30979851838954,273.302978515625,7.0399513
HNb2TiZn,7.061,dft,jarvis_alex,,0.6941016722481556,199.10578126448465,410.6246032714844,4.325115
H2P2Tc2Y2,4.619,dft,jarvis_alex,,0.5837060514432685,212.90988181705373,479.0313720703125,4.6239953
F6HgSr,13.852,dft,jarvis_alex,,1.5636206690275078,100.55737306163034,237.69650268554688,3.6058514
Hf2Zr2,4.056,dft,jarvis_alex,,0.6380625463364752,143.7890677181839,243.204345703125,2.6713731
HInTaTi2,4.93,dft,jarvis_alex,,0.6609068629408299,157.77225810267035,353.8883056640625,5.472941
MoNb5,8.14,dft,jarvis_alex,,0.7463800941579576,193.59570302555312,244.5950469970703,7.6865363
SiTc2Ti,9.896,dft,jarvis_alex,,0.8108728241717367,196.2867287165932,471.6444091796875,4.085643
HfNbOsRu,8.207,dft,jarvis_alex,,0.7873375249577719,173.80328172939096,346.3101501464844,3.389454
CdTi2Zr3,9.323,dft,jarvis_alex,,0.8638681426865281,162.83576763007653,286.7730407714844,6.8455586
Cr2TcW,13.51,dft,jarvis_alex,,0.8426825152651809,248.9590717211345,424.2193603515625,5.2859325
HRuTc2W,10.838,dft,jarvis_alex,,0.8126022544754747,212.8014569068472,476.9450073242188,4.8897824
Nb2TcTi,3.542,dft,jarvis_alex,,0.5231651540269381,239.670583676655,384.0962829589844,4.6046767
OsTi3,4.371,dft,jarvis_alex,,0.5427028241852393,258.823619074266,415.7363586425781,4.622244
TaTi2,15.323,dft,jarvis_alex,,1.4100427214428088,126.620176427053,314.2769470214844,4.6142354
H2Ni2P2Y2,1.46,dft,jarvis_alex,,0.4174563675910966,269.8266377462862,468.6481018066406,6.6764483
HfScZr,4.811,dft,jarvis_alex,,0.6829978215452557,141.80682619990895,276.4319763183594,4.6072626
HfTiZr2,12.824,dft,jarvis_alex,,1.1184336506940689,145.71232061763342,274.2756652832031,6.4127665
HMoSnTi2,11.748,dft,jarvis_alex,,1.2457347718180345,112.63082133771094,399.7212219238281,4.642324
AlHNb2V,10.992,dft,jarvis_alex,,1.00176714226411,145.9594610187732,418.9194030761719,4.917666
H4LiNaPd,9.264,dft,jarvis_alex,,0.8344133724111514,172.5360070315596,389.3257141113281,1.5084666
Nb2ReZr,2.017,dft,jarvis_alex,,0.4709830329270688,208.676499378391,318.5877380371094,3.6408362
Mo2RhRu,6.846,dft,jarvis_alex,,0.6662094241362125,216.31458627631216,459.2583312988281,4.2961183
MoTa2Ti,10.897,dft,jarvis_alex,,0.9074351301702352,173.5585056978062,346.8619689941406,5.6377177
RhTc2W,6.332,dft,jarvis_alex,,0.655516829864912,208.82127016190324,474.73040771484375,3.655655
H3Zr,31.502,dft,jarvis_alex,,1.5912959912024052,224.19500732389457,675.0492553710938,0.47725922
LaSc2,6.851,dft,jarvis_alex,,0.8945486546163068,111.797987246602,236.69094848632807,5.721741
HLa3Y,5.94,dft,jarvis_alex,,0.8350572454915843,110.09757710498504,229.2710723876953,7.8307457
LaY2,4.562,dft,jarvis_alex,,0.7779505664918562,98.88983377356824,196.0265350341797,5.200198
HIrNb2Pd,1.861,dft,jarvis_alex,,0.4469239165446363,243.8255074727887,373.5682067871094,3.3836887
Mo2PtTc,4.339,dft,jarvis_alex,,0.5735324770946667,212.947364372068,407.3485107421875,3.6482105
Sc2YZr,4.106,dft,jarvis_alex,,0.6061585419570172,169.31180481965177,292.685546875,5.9283304
HOTi2,5.014,dft,jarvis_alex,,0.5533821930326469,275.8986336657927,694.115478515625,3.3490918
Mn3,18.454,dft,jarvis_alex,,0.9650785441562136,265.5920755815394,585.3197021484375,4.1657133
IrNbRuSc,6.961,dft,jarvis_alex,,0.7609716146114565,158.41773581671768,354.6863098144531,4.380449
AlPdRuSc,0.0,dft,jarvis_alex,,0.1296925564045738,236.0509812045612,407.3546752929688,0.66698134
Lu3Y,1.509,dft,jarvis_alex,,0.4995505059952055,122.07955759910648,194.83822631835935,6.668282
HfPdTi2,1.506,dft,jarvis_alex,,0.4582283335287878,175.92389534892834,310.9465026855469,4.8350096
Nb2RhV,7.02,dft,jarvis_alex,,0.7472811608646394,165.90854982393972,346.3178405761719,3.771588
HfMoZnZr,4.757,dft,jarvis_alex,,0.6554935280089901,156.42639205663653,291.9111633300781,4.764631
HfNbReTi,9.895,dft,jarvis_alex,,0.8563160136674305,176.0673298539845,309.5914001464844,6.0563126
Re2Tc,12.181,dft,jarvis_alex,,0.918434389044882,191.0574878291233,431.6435241699219,2.8746407
FLi2Pd,0.0,dft,jarvis_alex,,0.1435565675098909,197.23702288918184,431.7261657714844,0.7191598
AlBC,0.0,dft,jarvis_alex,,0.1869519897861621,530.2732510716565,1027.457275390625,0.64016634
LuMoTi2,14.256,dft,jarvis_alex,,1.3509616470583108,124.3941120176086,349.8226623535156,6.031743
C2LaRu,9.167,dft,jarvis_alex,,0.7973856451859428,186.67466258577,433.1131896972656,1.6050297
Tc2V,9.167,dft,jarvis_alex,,0.6931304466871896,261.4137343133124,468.5629577636719,2.2948287
Os2Tc2,2.463,dft,jarvis_alex,,0.4687742861780527,260.430055366726,496.8972473144531,2.8622262
Mo2TcW,12.367,dft,jarvis_alex,,0.8922745357029979,204.22995091793896,417.2251281738281,3.4886374
Cr2MoTc,16.886,dft,jarvis_alex,,0.954212868230644,247.94755361851625,458.9180603027344,5.704196
LaPRh,10.924,dft,jarvis_alex,,1.0909293385998091,127.74831664128072,287.5585021972656,2.5300486
HfIrLuPd,1.363,dft,jarvis_alex,,0.4955273383828988,113.79913704536804,218.1953887939453,4.1287
CrMo2Re,11.611,dft,jarvis_alex,,0.7944986086588701,241.5815883841537,387.3427429199219,4.614788
Mn4Re2,4.919,dft,jarvis_alex,,0.5535785616742811,271.4767070642544,420.3700866699219,4.202273
As2H2Rh2Y2,1.781,dft,jarvis_alex,,0.4382528634001266,256.49668025988,380.9634399414063,2.9774272
AgTi2Zr,0.908,dft,jarvis_alex,,0.4153366286506637,172.67424156444295,324.54010009765625,3.73639
Cr3Tc,15.0,dft,jarvis_alex,,0.8769861794699586,255.7145065052909,488.1736755371094,4.56838
MoRu3,4.79,dft,jarvis_alex,,0.5636961676163251,249.18153891018588,494.0074462890625,3.8580801
NbOsZr2,6.525,dft,jarvis_alex,,0.6943235344130982,184.9724264307353,310.8620910644531,6.546772
MoTa2V,4.874,dft,jarvis_alex,,0.5968983030631196,210.4030516404556,339.7174072265625,5.7589025
Hf2NbPd,9.344,dft,jarvis_alex,,0.9269464021082898,143.62391476094584,255.7906951904297,4.9335756
AuHNb2Ta,10.61,dft,jarvis_alex,,1.0481743825348646,130.9523807273384,330.2328186035156,5.0687046
Ta2TiW,11.644,dft,jarvis_alex,,0.99647501576704,157.75993550036424,339.7779846191406,5.942885
LaScY,4.222,dft,jarvis_alex,,0.6921755611018775,120.4374984669188,207.7582244873047,4.4968076
LuZr,5.752,dft,jarvis_alex,,0.8297861060438426,108.63660656239789,248.16500854492188,3.3814855
C2MoW,0.0,dft,jarvis_alex,,0.1475922387724279,512.2462314701411,661.430419921875,0.44354177
NbSnZr2,1.918,dft,jarvis_alex,,0.4843574543919196,175.9950321317976,310.713134765625,5.0495005
Cr2TcW,10.186,dft,jarvis_alex,,0.7320873153406567,253.91292389841263,418.69439697265625,4.122982
TcW2,8.971,dft,jarvis_alex,,0.7625863056036735,203.9402890512628,402.2484436035156,1.7799208
Mo2ReTc,22.408,dft,jarvis_alex,,2.47714346417147,105.0819018781326,403.6959533691406,4.4412503
HfLiN4Ti2,3.184,dft,jarvis_alex,,0.4585678135537628,370.4180637845316,579.0799560546875,2.37269
Os2RuW,4.138,dft,jarvis_alex,,0.5716050142263656,205.5628106382156,439.5795593261719,4.1076097
AgMnZr2,7.567,dft,jarvis_alex,,0.8721064449515509,129.0938820645399,301.71875,3.3732412
Re2Tc2,13.353,dft,jarvis_alex,,0.9465624993899016,198.7675419159846,446.1730346679688,3.3695939
MoNbRe2,7.05,dft,jarvis_alex,,0.683910992123058,207.80005491304743,361.1428527832031,2.7240584
Cr2MoTi,1.296,dft,jarvis_alex,,0.4043950108665152,285.7306411963152,434.1558532714844,5.0348835
IrOsRu2,8.067,dft,jarvis_alex,,0.7234889812609544,207.1658153512439,460.3190612792969,3.926704
La2Os4,13.624,dft,jarvis_alex,,2.9184154821312025,55.46579127296005,110.83116912841795,8.949791
ScYZr,7.663,dft,jarvis_alex,,0.8903563917880416,126.28749326365772,281.9701843261719,4.9243383
LuZr3,12.798,dft,jarvis_alex,,1.2169637322024325,130.1092405951034,253.9801177978516,5.9403825
H3LaPt,12.179,dft,jarvis_alex,,1.050356726825599,150.23779015560226,278.8356628417969,1.8003584
Pb2Zr6,9.425,dft,jarvis_alex,,1.0049537996588724,125.73823806662632,264.3125915527344,13.387349
Tc3,6.706,dft,jarvis_alex,,0.6521790425780104,224.0863774559126,487.5807189941406,2.826021
OsRe2Ru,2.292,dft,jarvis_alex,,0.4745714171116389,229.62295457927848,453.0605163574219,3.0081265
SiTc3,14.643,dft,jarvis_alex,,1.0538066054098214,181.2257546898352,518.1856689453125,3.289926
HNb2VZn,8.098,dft,jarvis_alex,,0.7226781348527656,206.6531753882739,414.4505310058594,3.4018958
CrOs3,9.459,dft,jarvis_alex,,0.7554188781035214,219.3906479342237,441.5638427734375,4.0239553
H2Nb2Re,4.915,dft,jarvis_alex,,0.5742084137175499,238.80246920188043,417.007568359375,3.0283768
Re3Tc,8.668,dft,jarvis_alex,,0.7754690410600661,189.6435709015058,424.6665344238281,3.8694232
HMo2NiRe,5.074,dft,jarvis_alex,,0.5985780212206938,216.20386130058915,449.0597839355469,2.9070737
Ti2ZnZr,4.597,dft,jarvis_alex,,0.6436599436502728,158.6061557850298,355.3592834472656,4.1976814
MoRu3,7.805,dft,jarvis_alex,,0.6785173232080863,235.329311076228,496.218994140625,3.4994059
As2Ca2H2Rh2,0.335,dft,jarvis_alex,,0.3422969466385624,218.8315055684667,385.3134765625,3.0340395
H3IrMg,10.918,dft,jarvis_alex,,0.9650629003858144,155.1414603317709,435.2271423339844,0.7382622
ReTc2,15.228,dft,jarvis_alex,,1.015433635793593,201.9101585350453,461.89556884765625,2.868443
Mo2RhRu,6.163,dft,jarvis_alex,,0.6382061478168738,218.96903607829185,462.9755554199219,4.021796
ReTi2Zr,9.139,dft,jarvis_alex,,0.7707126990516581,202.25203877774496,324.87066650390625,4.3900204
NbOsZr2,13.744,dft,jarvis_alex,,1.6850293962868943,92.4864527451746,317.6450500488281,6.7692986
ReTc,12.444,dft,jarvis_alex,,0.910112624391513,198.39314680765463,446.9573059082031,2.039052
Cr2HRhRu,13.141,dft,jarvis_alex,,0.8729519409281818,224.0826227218189,496.37738037109375,4.5910316
Mn4MoRe,7.955,dft,jarvis_alex,,0.6498753029571112,268.12086034043136,449.4285583496094,3.9513633
C2NbTa,0.0,dft,jarvis_alex,,0.1620403607148173,411.9781857421005,581.571044921875,0.29648647
HfZr5,6.208,dft,jarvis_alex,,0.7500182399541687,145.98374132080903,254.27513122558597,5.5943346
Cr2N2Ti2,5.94,dft,jarvis_alex,,0.5298578998461051,382.67048178072577,725.8148193359375,4.1792006
HfMoTi,11.958,dft,jarvis_alex,,1.1082697108424602,136.7100936438978,350.0031433105469,3.8250782
Sc2V2,3.484,dft,jarvis_alex,,0.5164669453183782,247.48326267113217,328.56768798828125,3.6493485
Os4Y2,9.654,dft,jarvis_alex,,0.9818443585524677,134.84807580910697,228.56105041503903,7.6374516
IrMo2Ru,7.686,dft,jarvis_alex,,0.7010114456899714,213.13207953429804,453.798583984375,4.804948
CNb2S,3.949,dft,jarvis_alex,,0.5260567209099787,260.924551574704,528.4224243164062,1.8688151
Ru2Tc2,4.004,dft,jarvis_alex,,0.5221706821646869,273.1875787620185,537.0429077148438,3.815999
La2Y2,7.53,dft,jarvis_alex,,1.262028601959278,71.90887650194453,182.2014923095703,5.480737
Ca2H2P2Tc2,2.497,dft,jarvis_alex,,0.4850792270911765,227.186722553594,470.5415649414063,5.780714
HfZr2,11.577,dft,jarvis_alex,,1.1412186632408254,127.66149536170605,245.1891021728516,4.817189
Cr2H2Re,4.543,dft,jarvis_alex,,0.54007108962715,272.3359426508352,555.986083984375,4.0090814
HfZr3,11.278,dft,jarvis_alex,,1.0594401321107698,139.07199489273648,251.8616180419922,5.692362
HPdRuV2,4.429,dft,jarvis_alex,,0.546402815820595,254.99711573834983,461.099853515625,4.404503
AsTc3,6.617,dft,jarvis_alex,,0.6679027593096413,207.3081084630864,446.6271667480469,2.9021041
HfMo2Nb,6.03,dft,jarvis_alex,,0.6735060343503476,184.57914841000724,340.0973815917969,4.6309924
ScY2,2.85,dft,jarvis_alex,,0.5650660623832049,146.85146675029353,258.6185913085937,4.850593
IrMoRu2,7.042,dft,jarvis_alex,,0.6634709717460086,225.13939939840952,455.6830749511719,3.8710759
NiTc2W,3.983,dft,jarvis_alex,,0.5505075184082628,224.4500006707532,469.4842224121094,3.51202
Ta2V4,3.37,dft,jarvis_alex,,0.522566963639764,228.56333258041315,253.3778839111328,11.410185
NbTaTcTi,6.194,dft,jarvis_alex,,0.649491082777814,209.09867873777569,339.9371643066406,5.670965
HHfNb2Sn,5.1,dft,jarvis_alex,,0.7020703607740026,139.45626201767263,352.8750915527344,3.572247
HLuSc3,1.17,dft,jarvis_alex,,0.4242946578435678,198.71277400754693,372.3352355957031,5.4256716
NbPdTi2,2.572,dft,jarvis_alex,,0.4871709981870143,230.4658189126145,343.4960021972656,5.3618407
NbZnZr2,12.544,dft,jarvis_alex,,1.1827816123747337,131.5617889688488,275.8012390136719,4.677797
CoCr2Ru,8.227,dft,jarvis_alex,,0.6652221882884206,260.76375894254375,485.37640380859375,4.762535
Sc2Y2,3.31,dft,jarvis_alex,,0.5883434231521861,149.543831830984,270.507568359375,7.1708107
H4Ru4,3.369,dft,jarvis_alex,,0.4794585473651308,321.5845220293989,516.974365234375,6.0192475
Hf2Zr,5.478,dft,jarvis_alex,,0.7388086291057328,133.47462060806666,246.5443878173828,3.7766194
Nb5Re,3.31,dft,jarvis_alex,,0.5317668025147878,210.72502688799247,260.4410705566406,5.734736
CuNbZr2,8.393,dft,jarvis_alex,,0.8160763946044773,164.52249677510346,298.21075439453125,4.502177
Os2RuV,11.492,dft,jarvis_alex,,0.8612688600874311,202.6479308786471,452.8994445800781,3.8165913
HfNbTa,12.138,dft,jarvis_alex,,1.1038883263101884,140.58873952369572,256.4671630859375,4.1576514
As2Pb,7.674,dft,jarvis_alex,,1.2353005248429667,74.65522485752354,181.4180603027344,1.5124252
LuScY2,2.566,dft,jarvis_alex,,0.5635260499381436,133.32734455254575,221.08294677734372,7.090444
HNb2PbTi,3.567,dft,jarvis_alex,,0.5721599652000116,175.54749412867193,370.65228271484375,3.657155
ScZr2,12.673,dft,jarvis_alex,,1.1365415625606297,140.8741857632025,285.4884033203125,4.939382
MoReW2,5.439,dft,jarvis_alex,,0.6195507703033201,210.3297667361706,377.9817199707031,2.8743773
HMoRhTc2,10.868,dft,jarvis_alex,,0.7982600417620758,221.641621520135,462.2720947265625,4.2834125
PdRhScTi,6.574,dft,jarvis_alex,,0.8509269807422902,117.68948405954228,335.0988464355469,5.162734
AlTi2V2,7.613,dft,jarvis_alex,,0.6859598464984966,222.1075474097689,451.21923828125,4.7812204
InNbTi2,6.733,dft,jarvis_alex,,0.7314410128384071,167.49398570545446,328.1361389160156,6.6727605
Lu3Zr,2.769,dft,jarvis_alex,,0.6047077048703874,114.96035346625106,220.7007598876953,6.9692974
HMoRhTc2,8.427,dft,jarvis_alex,,0.7096522617499313,224.6899091736556,477.5493469238281,3.748465
MoNbReTc,10.571,dft,jarvis_alex,,0.7971286208428319,218.4502950670376,377.1102600097656,3.9957469
HfMoNb2,14.636,dft,jarvis_alex,,1.2438814191565588,143.1844645774025,297.1571044921875,5.923352
Mg2N4ReZn,0.002,dft,jarvis_alex,,0.2186223393906113,313.88713541554404,457.5056457519531,1.3673301
Y3Zr,3.758,dft,jarvis_alex,,0.616055525125388,147.81478315639416,261.6794128417969,5.161024
Re2Tc2,11.596,dft,jarvis_alex,,0.90057750951969,187.87744111979035,446.5894165039063,4.075627
BiHTi2Zr,5.194,dft,jarvis_alex,,0.7274522645450673,130.19788118586862,319.2639465332031,5.406247
MoOsRu2,7.52,dft,jarvis_alex,,0.6825605604321852,223.1309335632502,469.0999450683594,3.3537357
HOs3Ta,7.557,dft,jarvis_alex,,0.7219188015948269,193.13462564151664,373.4396667480469,3.5762026
Cr2RhRu,12.674,dft,jarvis_alex,,0.8866198071116504,211.2559569217613,455.5919799804688,4.900354
Cr2FeHRu,15.358,dft,jarvis_alex,,0.9163184564244612,239.9074016957336,488.4135437011719,6.020084
N2TaY,12.172,dft,jarvis_alex,,0.7982063248723072,247.52560310783568,549.5228271484375,0.8673644
CrMoTcW,9.643,dft,jarvis_alex,,0.7305881124183734,241.7680292996259,412.8764343261719,3.668588
Cr2HMoNi,5.618,dft,jarvis_alex,,0.6347704168896733,201.05851517640053,506.4483642578125,4.359451
MoRu2Tc,10.836,dft,jarvis_alex,,0.800724895206984,221.9868845803689,489.241943359375,5.171486
MoPdTc2,7.962,dft,jarvis_alex,,0.7220218622926698,205.3344345740261,439.33404541015625,3.4702468
Lu2Os4,8.758,dft,jarvis_alex,,0.8958575774575389,143.64641120563485,237.0334014892578,6.5645237
AuOZr3,9.032,dft,jarvis_alex,,1.4667280165541063,70.44901489738228,374.0524291992188,5.2341924
MoTcW2,5.692,dft,jarvis_alex,,0.6144482502294243,225.6411495406816,396.7435607910156,2.3716185
B2La2N2Ru2,9.251,dft,jarvis_alex,,0.7713341978526553,202.72157599640275,437.81634521484375,1.8021816
CrMo2Re,11.611,dft,jarvis_alex,,0.8028223856560506,236.0352987659696,441.1778869628906,3.0536337
HfNbTa,12.893,dft,jarvis_alex,,1.233113280487051,127.75090365128096,258.5888977050781,4.5748363
HNb2PdRu,4.18,dft,jarvis_alex,,0.5591258390222572,222.10385097520071,407.85101318359375,3.6837268
TcW3,8.267,dft,jarvis_alex,,0.7403357409129174,201.17052409999644,397.3066711425781,3.2549367
AlIrNb6,7.444,dft,jarvis_alex,,0.6874905597961232,216.4377280844727,365.0487365722656,7.0767803
PbTi4,7.854,dft,jarvis_alex,,0.8278520322932263,148.5693308622454,295.63348388671875,7.302944
HLi2Pd,0.0,dft,jarvis_alex,,0.1556894209532797,233.9714643587733,408.8298645019531,0.22492373
Lu2Tc4,13.321,dft,jarvis_alex,,1.7858257716457575,84.0363898615301,307.5916442871094,7.8514376
NiPtTi2,5.836,dft,jarvis_alex,,0.6736670403527244,178.18639034491173,275.0884094238281,4.198659
Mg2N4TcZn,0.0,dft,jarvis_alex,,0.1545755383046456,389.9642086158309,504.37255859375,2.4244802
HHfNZr,2.266,dft,jarvis_alex,,0.4468894595661025,296.97933323193337,426.4180603027344,1.9778267
HInNb2Ta,6.033,dft,jarvis_alex,,0.7608051057892218,136.25064384975758,342.1848449707031,3.6739967
GeReTc2,11.556,dft,jarvis_alex,,1.117194418873252,130.11293056737816,413.83599853515625,3.0447118
PReTc2,7.741,dft,jarvis_alex,,0.6909629492410806,221.75477273863515,495.1900329589844,2.7713358
Re3Tc,10.884,dft,jarvis_alex,,0.8705107396563936,188.3824772950409,418.7153015136719,4.161181
MoOs3,7.562,dft,jarvis_alex,,0.7134059627387247,201.014025780303,433.1954956054688,5.1769996
Nb2TcTi,9.718,dft,jarvis_alex,,0.8263560167779188,185.0450953528736,381.4165649414063,6.696692
Ru3Ta,8.149,dft,jarvis_alex,,0.7533076978471339,190.13639305839297,400.4895935058594,4.2412605
Sc3Y,3.667,dft,jarvis_alex,,0.5940571612047142,160.72730650544548,294.33331298828125,7.5978875
HNbOs2Ru,6.507,dft,jarvis_alex,,0.6459556895571008,221.902822786288,421.1061706542969,5.0087404
Ti2W,17.838,dft,jarvis_alex,,1.716773331664479,117.81766623491195,389.7283630371094,5.4251924
ReW2,7.556,dft,jarvis_alex,,0.7288908744269461,190.66714009815092,374.0144958496094,1.5087358
HNbRu2Tc,10.066,dft,jarvis_alex,,0.7879689178116983,211.43896128814905,464.5450134277344,4.471118
OsTc3,6.701,dft,jarvis_alex,,0.6347790576934665,241.7717922327597,490.58349609375,3.392861