formula,Tc,tc_source,dataset,pressure_gpa,lambda,wlog,debye_temp,dos_ef
Ni2P4Ti2,2.305,dft,jarvis_alex,,0.4615973814104004,260.4697941325846,564.8088989257812,4.7221937
GeInLi4,0.789,dft,jarvis_alex,,0.4043201148340933,173.7251354314005,364.1329956054688,1.3725419
Ga2NiRh,1.561,dft,jarvis_alex,,0.4892807135439044,137.0908422237655,313.7598571777344,2.188976
Be2NiRh,0.0,dft,jarvis_alex,,0.207783647198659,307.3546523623871,535.6988525390625,1.8176653
PtRhScZn,0.0,dft,jarvis_alex,,0.1620408738497185,170.3888648642114,306.36962890625,1.9187355
Ni2TaZn,0.034,dft,jarvis_alex,,0.2743051377490008,187.00306630884225,366.7445983886719,3.0248187
Li2RhSn,0.318,dft,jarvis_alex,,0.3564087813809873,154.84496963572764,321.2383117675781,1.8614435
AlFe2V,0.0,dft,jarvis_alex,,0.1193349698269041,361.5290103209013,644.3509521484375,1.2971536
GaNbOs2,0.182,dft,jarvis_alex,,0.3212424387324023,198.74218802530072,376.6494445800781,1.0570111
Cs2H6KPt,0.01,dft,jarvis_alex,,0.2680137150722855,75.11323959090305,160.0279998779297,2.7338169
ReTcTiV,0.159,dft,jarvis_alex,,0.3050306047597312,276.9989447306035,419.1473083496094,2.3336568
OSc3Tl,0.218,dft,jarvis_alex,,0.3153557062641214,279.76109132856743,384.4302673339844,2.663124
InNb2Zn,0.026,dft,jarvis_alex,,0.2671265864027828,192.87739631714328,322.6557312011719,1.7459466
H3LaRh,2.424,dft,jarvis_alex,,0.472048604123116,247.453251519967,381.1887512207031,0.8722895
MoNb2Os,0.154,dft,jarvis_alex,,0.3075117050947368,248.39178210965903,380.7507934570313,1.4481773
La3N2,3.07,dft,jarvis_alex,,0.5301051771854254,197.0226898973879,327.50048828125,4.0196424
AlCaLi4,0.213,dft,jarvis_alex,,0.325172055422509,209.8675553796671,446.0173950195313,3.1102302
OsRuZr2,0.0,dft,jarvis_alex,,0.1511590171664115,234.40008788319173,351.0985412597656,1.1009383
Mo2TiW,0.35,dft,jarvis_alex,,0.3365992435846864,261.03090062293745,422.4236145019531,3.142162
La4N3O,2.461,dft,jarvis_alex,,0.4578398014603245,288.84594210685225,394.8287048339844,2.0677104
HNbSbTi2,4.283,dft,jarvis_alex,,0.6245449500873197,160.69330626869385,389.5103454589844,4.2753882
Si2Tc2,1.828,dft,jarvis_alex,,0.435435372849874,272.5743063337039,600.87060546875,2.6299224
CGaV2,0.001,dft,jarvis_alex,,0.2129910025624924,380.2330231789487,582.2850341796875,1.7287685
GaHfRhRu,0.0,dft,jarvis_alex,,0.0516436886201425,219.5111062683665,348.7611694335937,1.0175172
Os6Ru2,1.628,dft,jarvis_alex,,0.4358288085535689,241.98233732233612,486.2423400878906,6.878542
Re2Ru6,1.507,dft,jarvis_alex,,0.4228551675500543,261.27160289274406,499.0498046875,4.1966567
LaMg2P2,0.037,dft,jarvis_alex,,0.2747938240621327,194.2010573462772,382.07037353515625,2.5650835
Ge2Hf4,0.001,dft,jarvis_alex,,0.2232369243576319,170.12366561703956,316.5865783691406,1.8705341
GeLiMgNa,0.0,dft,jarvis_alex,,0.1259534595856744,203.0614484156889,363.6589660644531,0.529135
CRu3Zr,0.0,dft,jarvis_alex,,0.190561232456742,270.6797988236318,552.33251953125,1.5247273
Ga3Ta,0.013,dft,jarvis_alex,,0.2556198080995209,180.640944470546,363.2010803222656,0.83749354
Ni2P4Zr2,0.383,dft,jarvis_alex,,0.3387568664922774,271.46238073136306,444.9358215332031,5.091109
Al3AuCa,0.142,dft,jarvis_alex,,0.31272163582329,196.56702308455908,300.0039367675781,1.5925975
PTeZr2,1.23,dft,jarvis_alex,,0.4237037294300769,210.6159199646624,362.0855712890625,1.9873288
Co3HSi,0.009,dft,jarvis_alex,,0.2404909659883541,299.1004731698489,544.3045654296875,2.7854722
LiNi2P2Sc,1.837,dft,jarvis_alex,,0.459244105247638,212.3350559174232,471.2525329589844,3.1590128
CaNbRu2,0.0,dft,jarvis_alex,,0.19021089017702,212.92716574609045,342.3612365722656,2.446458
B4TaZr,1.053,dft,jarvis_alex,,0.3634512402541645,448.0010666526208,721.7733154296875,1.7766569
Cr2MoRe,12.5,dft,jarvis_alex,,0.8033295778018871,253.7857588511197,403.7867736816406,5.189193
AlLiNiTi,0.0,dft,jarvis_alex,,0.039028777859348,328.1933300885145,477.2371520996094,-0.0876375
OsRhTaZn,0.0,dft,jarvis_alex,,0.091287344299047,193.13067573529125,326.82037353515625,0.8581966
AlCuRh2,0.25,dft,jarvis_alex,,0.3437353988041218,158.82074858776602,409.5787048339844,4.4164753
GeV6W,5.587,dft,jarvis_alex,,0.5761381793718646,270.0294424955093,458.8162231445313,7.0739107
Pt2Ru,0.726,dft,jarvis_alex,,0.3889860214766506,200.78727297644616,341.3421325683594,4.123567
MoTc2V,11.827,dft,jarvis_alex,,0.858846796349133,209.26610328715373,445.7739562988281,2.7959635
Rh2ScZn,0.0,dft,jarvis_alex,,0.1853613321754844,179.13227371449753,373.3893127441406,1.2655976
MoOsV2,0.57,dft,jarvis_alex,,0.3530446167677214,297.5125307080011,428.6346740722656,2.3840272
MnV,0.036,dft,jarvis_alex,,0.2620554876323837,351.51596299600425,595.2610473632812,0.7294857
AlNbOs2,0.005,dft,jarvis_alex,,0.2376521056057595,229.13139530825333,406.8763732910156,1.1397169
ReTc2Ti3,1.613,dft,jarvis_alex,,0.4320058358902479,250.24437670804207,367.7723693847656,5.3993974
ScZn6Zr,1.083,dft,jarvis_alex,,0.4579438505817096,126.68548148209216,288.6091613769531,3.845687
FeHf2Tc,0.01,dft,jarvis_alex,,0.2483306552314862,217.1892241611036,323.9001159667969,4.3481474
GaO2Pd,0.0,dft,jarvis_alex,,0.0941313803338905,260.6509645338812,441.8510437011719,0.5354082
Nb3Tc,1.185,dft,jarvis_alex,,0.415146210662676,226.29285387560307,327.48687744140625,3.1936653
LiPd2Si,1.845,dft,jarvis_alex,,0.4965150964133619,152.3250407568901,314.2989807128906,1.9543562
GaSc2Zr,3.346,dft,jarvis_alex,,0.5688888792273602,168.36202299696797,330.2012634277344,3.3329592
CuMgRhZn,0.015,dft,jarvis_alex,,0.2665653412691471,118.63706434097342,295.7945861816406,2.32006
MoTiVW,4.281,dft,jarvis_alex,,0.548573599425385,243.93415135106875,349.7106018066406,5.8000984
CaLiMg,0.001,dft,jarvis_alex,,0.2160249349741163,195.1513962072184,312.1567687988281,1.8835989
Mo2RhV3,5.798,dft,jarvis_alex,,0.6308087300148019,212.26204163844125,403.8687133789063,4.9234366
OsReZr2,0.028,dft,jarvis_alex,,0.2674331519839225,205.4930562780501,322.7741394042969,2.815536
Mo2TiW,0.484,dft,jarvis_alex,,0.3529490660866791,252.9059594455321,405.9894104003906,3.9615636
Co2Si2Y2,0.067,dft,jarvis_alex,,0.2847876961444084,235.0536921067118,390.7384948730469,4.504969
AuH3Na,21.972,dft,jarvis_alex,,0.6263362342572348,819.9653375015238,308.7881774902344,0.5249773
GaLiNi2,0.0,dft,jarvis_alex,,0.1719782429232633,205.3351987856324,381.090576171875,0.68833
Al2CdPd3,0.115,dft,jarvis_alex,,0.3122007055430124,161.38212499055732,327.10858154296875,1.175733
Be2Zr4,7.109,dft,jarvis_alex,,0.7305448038623518,176.8554772483518,418.3078002929688,5.1552777
LiOsRuW,0.935,dft,jarvis_alex,,0.4093883410599553,192.51438680511967,359.7680969238281,2.5648558
InMgRh2,0.0,dft,jarvis_alex,,0.100112242362238,183.6452977492319,337.6488647460937,0.87554187
OsZr,0.0,dft,jarvis_alex,,0.1299944446979603,234.54164499023787,349.41534423828125,0.53462565
CrMn2Si,9.292,dft,jarvis_alex,,0.6947173866486003,263.11511850600806,590.8861083984375,3.435356
Sc5Zr,2.087,dft,jarvis_alex,,0.4829150681454437,193.96684178078456,343.3797912597656,11.2519
LiMoPt2,0.053,dft,jarvis_alex,,0.280360368933811,220.93364783829733,319.6280212402344,1.8086907
CaCdHg2,1.04,dft,jarvis_alex,,0.5136046862151985,75.18326669872225,122.98926544189452,1.9334496
Cr4ReRh,8.379,dft,jarvis_alex,,0.6370144047921986,298.84932574875734,405.2179260253906,5.63832
Be2Os2,0.012,dft,jarvis_alex,,0.2459755228798049,287.3282064910604,495.0091247558594,0.7992508
CdRhSc2,0.72,dft,jarvis_alex,,0.4040661099951662,159.31702182654806,292.82330322265625,2.1922119
MoRuTi2,5.898,dft,jarvis_alex,,0.6238600168077755,223.0412992071593,458.9853210449219,4.63017
HfOs2Ti,0.0,dft,jarvis_alex,,0.1093398839338449,254.2530885858394,365.8417053222656,0.50394666
Mn4MoW,12.187,dft,jarvis_alex,,0.7990049856797393,249.6244144378878,458.7356262207031,8.611542
NSc2TiZn,0.407,dft,jarvis_alex,,0.3700337472153547,153.4656029201888,498.7206115722656,2.1745796
Mn4NbRe,11.303,dft,jarvis_alex,,0.7684416094405148,251.897469231414,432.8335571289063,7.0440836
CCoMgNi2,4.098,dft,jarvis_alex,,0.5964379211716623,176.60758680039714,487.2779235839844,3.9795275
C2CaFe2,0.581,dft,jarvis_alex,,0.3386281736504852,413.1864078535784,556.9290771484375,3.5201538
PtRuZnZr,0.0,dft,jarvis_alex,,0.1194110457848305,176.82040256182265,310.6812438964844,0.68234354
Os2ScTa,0.0,dft,jarvis_alex,,0.07775030093192,238.6597081925882,364.4900817871094,0.42611054
BPdRh2Tl,0.037,dft,jarvis_alex,,0.2932985841283365,95.53209918058728,308.53680419921875,1.2702957
GeNiV2,1.252,dft,jarvis_alex,,0.4155786794110456,237.48614528450256,446.0629577636719,3.958082
PtRh2W,2.432,dft,jarvis_alex,,0.4939037118390648,206.0228986373544,372.8995056152344,3.3462775
HfMoTc2,0.029,dft,jarvis_alex,,0.2640755734959527,250.2209148571317,367.3387756347656,1.2442261
H2RhY2,0.0,dft,jarvis_alex,,0.1977664078959352,224.936565486318,383.013916015625,1.327788
MoTaW,0.0,dft,jarvis_alex,,0.1927035297160898,234.79676846783303,365.2027282714844,1.2376662
Mo5V2W,0.099,dft,jarvis_alex,,0.2910395104721276,277.44884282921066,413.5612182617188,5.1698065
Mo2NbV3,5.27,dft,jarvis_alex,,0.5986306070135597,225.26431974412253,387.3247680664063,7.4380975
Be2Cr2Nb2,0.463,dft,jarvis_alex,,0.3421738332664003,303.9799569460643,544.3936767578125,3.6682093
NiSi3Sr,0.556,dft,jarvis_alex,,0.3527939981837377,291.5538944620087,443.7263488769531,1.4069124
B2Nb2S2,0.092,dft,jarvis_alex,,0.2828359716875647,351.36400336894394,489.6648254394531,1.870027
CTlZr2,0.002,dft,jarvis_alex,,0.2247094275708672,230.86690930362792,365.3797607421875,0.61410487
NbPt2V,2.142,dft,jarvis_alex,,0.478676561927019,206.52643760442683,367.6490173339844,2.4349546
AlLi2Pt,0.353,dft,jarvis_alex,,0.3506903722622588,193.1959567401052,320.4013977050781,1.572523
C2Fe2Sr2,0.166,dft,jarvis_alex,,0.3005297995876026,333.2228733715556,382.2711486816406,4.5325575
CV2,0.433,dft,jarvis_alex,,0.3337286800242156,345.2537720099573,596.7914428710938,1.8897576
GaMn2Ti3,1.551,dft,jarvis_alex,,0.4276305055507802,253.52517172980967,440.5939025878906,4.26229
GeRh7,1.311,dft,jarvis_alex,,0.4263233530868456,217.74510042850903,428.2655334472656,4.690624
AlCSc2Ti,0.002,dft,jarvis_alex,,0.2209720312016753,270.5016323072477,629.9757690429688,2.3989754
Al2OsPd,0.0,dft,jarvis_alex,,0.1985734710509295,211.71417000261715,403.5672912597656,0.9081789
H2NbV2,0.247,dft,jarvis_alex,,0.3160012193750846,311.4979884879916,571.51904296875,3.7344205
Mo2TaW,0.007,dft,jarvis_alex,,0.2412416718779028,240.3004629137363,359.8163757324219,2.9106205
Ru2V2,6.702,dft,jarvis_alex,,0.6829396680272822,197.4282639122137,434.4289855957031,3.695848
NbScTc2,2.217,dft,jarvis_alex,,0.4713514551587855,228.68550170151104,403.7927856445313,4.7393866
MoVW2,0.002,dft,jarvis_alex,,0.2206520448915808,263.2561609737851,378.9017028808594,1.5472633
GaRu2Sn,0.535,dft,jarvis_alex,,0.3799049359594337,171.05754952249174,388.0149230957031,4.469644
CuHfPt2,0.0,dft,jarvis_alex,,0.1692943700117422,161.84707627000805,288.36651611328125,1.8675561
In2Zr6,3.203,dft,jarvis_alex,,0.5636271945409829,166.4832440767645,296.7956237792969,9.482458
BeCo2W,0.273,dft,jarvis_alex,,0.3376111015387474,198.43216948216752,560.9937744140625,3.54502
Cu2P2RbY,0.0,dft,jarvis_alex,,0.1575729469855414,229.3878740582436,327.8407287597656,0.88322043
Sc2W4,0.626,dft,jarvis_alex,,0.3840030003828567,187.067595558304,316.3778076171875,8.880854
PdPtTi6,7.179,dft,jarvis_alex,,0.6950023459409529,202.5527894927885,342.7733459472656,11.613811
PdRhZn2,0.0,dft,jarvis_alex,,0.1151242305507166,182.0547043810783,330.9908752441406,1.3573669
AlIn2Zr,0.0,dft,jarvis_alex,,0.2053704757830956,187.7787800707733,331.53955078125,1.4460403
B2Lu2N2Ni2,2.109,dft,jarvis_alex,,0.4155094384750049,399.9169957805154,502.56927490234375,3.3777199
Nb6Rh2,6.083,dft,jarvis_alex,,0.6417156401038061,212.68824162187568,400.7317504882813,6.1589236
Os5Rh,1.478,dft,jarvis_alex,,0.4307764925872992,232.8966058992466,425.8498229980469,2.7098253
CdRh2Si,0.002,dft,jarvis_alex,,0.2287861806568793,201.690228576246,406.8074951171875,1.207857
RhRuTi2,4.735,dft,jarvis_alex,,0.6144674224483216,187.05929791539253,437.7481994628906,2.8636143
Al2CuPd,0.363,dft,jarvis_alex,,0.3733993986667311,129.09145720389972,407.52923583984375,0.645573
AlMoOs,0.431,dft,jarvis_alex,,0.3533410037631148,223.3325465435966,428.8489379882813,1.3921546
PtSi3Sr,1.805,dft,jarvis_alex,,0.4397393650439111,256.2835912375333,336.5143127441406,1.094205
Cr4Ta2,5.242,dft,jarvis_alex,,0.5717350615370922,259.5558462374209,377.6969604492188,6.0807724
MoNb2W,0.251,dft,jarvis_alex,,0.3291567180053683,223.4066780735457,347.23681640625,2.4597352
Ta2W,1.951,dft,jarvis_alex,,0.4895758819342182,171.1536097801323,310.8237609863281,2.808155
LiMgScZn,0.0,dft,jarvis_alex,,0.19474263564968,240.0775676244596,381.7087707519531,1.6548301
LiNbRhRu,0.088,dft,jarvis_alex,,0.2948527135335171,214.02156969579696,379.885498046875,2.815786
YZn2Zr,0.543,dft,jarvis_alex,,0.3937995075293424,139.45015369622223,304.2896728515625,3.6139805
OTlY3,0.545,dft,jarvis_alex,,0.3702415097995362,205.0613637991368,301.92462158203125,1.897056
CSbSc2,4.267,dft,jarvis_alex,,0.8124135799830934,83.5560074539014,446.204345703125,1.4862591
CoH2V2,3.79,dft,jarvis_alex,,0.5116438851983991,277.68844709868256,615.7789306640625,1.8582038
InLiNiSc,0.097,dft,jarvis_alex,,0.2977228540951235,213.86276813844057,340.0516662597656,4.388693
AlBeRh2,0.0,dft,jarvis_alex,,0.1360313376422692,283.5017904664492,519.4689331054688,1.2502546
CrMoV2,1.461,dft,jarvis_alex,,0.4139703904264602,283.1681819657491,456.0020446777344,3.3218083
OsV2,0.258,dft,jarvis_alex,,0.3182862658362638,305.06595921641446,414.0863952636719,2.1481318
NbW2,0.0,dft,jarvis_alex,,0.2017020184532969,238.76292569292852,364.83306884765625,1.0148658
NbReTiW,0.661,dft,jarvis_alex,,0.3736783998111742,234.393664328252,365.8118591308594,3.0195441
InMgRh2,0.0,dft,jarvis_alex,,0.0983094661164624,187.0690244144668,349.8604431152344,1.7109987
BNaPd3,0.0,dft,jarvis_alex,,0.1381469929441663,163.63193290340573,244.6508331298828,0.47588465
AlLiRhSc,1.376,dft,jarvis_alex,,0.4236643747845438,235.5954315714751,418.2498474121094,3.1560986
KNi4S3,1.821,dft,jarvis_alex,,0.4622170455896221,204.53955668317263,288.5970764160156,8.273364
GaTc2W,1.436,dft,jarvis_alex,,0.4430926579083658,196.73031371651464,373.5224914550781,2.9619386
MoTcWZr,0.068,dft,jarvis_alex,,0.2851234677470886,237.26562249268247,377.3303833007813,3.5560467
LiRhSc2,0.073,dft,jarvis_alex,,0.2905827459299053,206.91294738417125,330.8542785644531,2.9267092
AlPd2Zn,0.225,dft,jarvis_alex,,0.340088397358449,154.88771691149125,358.8846130371094,1.2409151
C2ScW,11.076,dft,jarvis_alex,,0.7116665488493511,292.7479311899049,646.8880004882812,1.5154543
B2Co2Y,0.006,dft,jarvis_alex,,0.23226983236526,371.6863590463683,590.5701904296875,1.3602469
CuPd2W,0.03,dft,jarvis_alex,,0.2706295701812818,193.8737212690576,325.4913635253906,2.1589918
Al6Ti2,0.0,dft,jarvis_alex,,0.1577191421307339,354.0563692916938,647.9237060546875,3.318506
MoReTi,0.089,dft,jarvis_alex,,0.2895403496376882,261.1871141908134,397.1792602539063,2.4262102
Cd2LiPd,0.045,dft,jarvis_alex,,0.2927157282795488,117.80534698671232,188.5408172607422,1.4342284
B6Rb,25.133,dft,jarvis_alex,,0.6791829548653796,752.7883906010414,857.4140625,1.8238735
MoTaTi,6.117,dft,jarvis_alex,,0.6583396486290974,198.8341703364162,354.6053771972656,3.4229894
CuRh2V,2.797,dft,jarvis_alex,,0.54797338612375,159.565255721427,412.1481018066406,1.9427576
Fe2P2Sc,0.003,dft,jarvis_alex,,0.2233275209048486,341.3854493967977,575.4403076171875,3.012901
C3Hf4N,0.557,dft,jarvis_alex,,0.3411597005072707,373.437463297653,450.4504699707031,2.6965199
Rh2SnZr,0.542,dft,jarvis_alex,,0.3811003497089205,169.92844603913298,339.94842529296875,0.8167309
CdRh2Sn,0.06,dft,jarvis_alex,,0.3000919847997607,121.77996305047554,294.76324462890625,3.9411383
AuLi2Pd,0.0,dft,jarvis_alex,,0.1684060816309263,150.18509275634167,226.87158203125,1.1010842
CuMo2Ti3,10.677,dft,jarvis_alex,,0.8364826293961848,198.69701845472807,419.9190979003906,7.8902683
GaLiRuZn,0.06,dft,jarvis_alex,,0.2916811928565666,164.07242833970062,359.89703369140625,1.6274114
HPd3Pt,0.251,dft,jarvis_alex,,0.3324626976094689,206.44268036631817,289.3499450683594,6.4209404
NbOs2Sc,0.0,dft,jarvis_alex,,0.1612175800739239,238.36662846673715,377.175537109375,0.84973705
MgRhSb,1.146,dft,jarvis_alex,,0.4508641044081156,144.3680552830797,266.0030822753906,1.928772
Re6Ru2,6.062,dft,jarvis_alex,,0.6540991763271513,201.08474573957605,428.4048156738281,8.789275
CrN,0.527,dft,jarvis_alex,,0.32105115549198,579.2789277570937,851.81591796875,1.1203594
Ru2Tc6,9.3,dft,jarvis_alex,,0.7191170197407579,242.2962440790511,520.3560180664062,9.908609
PtRh2Ta,0.001,dft,jarvis_alex,,0.2151618056147986,214.7663200543514,373.8215026855469,2.9861345
AlLiMgY,0.038,dft,jarvis_alex,,0.2741057195023268,210.13430944164745,414.0157775878906,2.2538598
Ni2Rh3Y,1.157,dft,jarvis_alex,,0.4349847246369314,173.32662292651008,358.7946472167969,5.966551
Mg3Sn,0.903,dft,jarvis_alex,,0.4388512768141518,129.33305334582568,307.6026306152344,2.2578678
CuMg2Rh,0.0,dft,jarvis_alex,,0.2056722115852768,153.45945790168946,361.1002502441406,1.2075279
AlGaLa,3.289,dft,jarvis_alex,,0.6062157284474872,135.1100033552899,327.8678894042969,1.966912
Mo2NbV,0.776,dft,jarvis_alex,,0.3780666223332418,255.59699759863625,392.5569763183594,2.5915544
Pt3Rh,0.619,dft,jarvis_alex,,0.391185346729736,165.31502876889465,270.4499816894531,8.063386
ScZn3,3.825,dft,jarvis_alex,,0.6419417723714443,132.9679563867377,300.0370788574219,2.1211677
Li2MgPb,1.083,dft,jarvis_alex,,0.4766243311898105,105.96690064824698,271.11981201171875,0.9373163
K6Rb2,0.0,dft,jarvis_alex,,0.1355471686376604,64.70323727847322,84.98773956298828,6.490329
NiScTcZr,0.0,dft,jarvis_alex,,0.1583900166412225,233.72996674557825,368.72802734375,2.5214064
GaPd2Zn,1.528,dft,jarvis_alex,,0.5168132393529198,107.90783840863072,320.4735412597656,1.9550706
AlNiRh2,0.178,dft,jarvis_alex,,0.3244148856929489,178.41268024658015,394.5074157714844,4.477967
Ga2Rh2Sr,0.0,dft,jarvis_alex,,0.1991164603915977,157.3904594242064,306.42657470703125,1.2037842
InZn2Zr3,1.525,dft,jarvis_alex,,0.4762925608739492,150.02346195767063,316.4619445800781,5.8930855
CaNbRh2,1.714,dft,jarvis_alex,,0.4856756712508425,155.43355494481105,322.5242004394531,4.070548
AlPtRhZn,0.003,dft,jarvis_alex,,0.2345517346497052,155.94316515660665,350.8199768066406,1.6438106
Be6Fe2,5.571,dft,jarvis_alex,,0.5937763078247991,243.3371024423804,717.0118408203125,4.589125
MoNbRuTa,0.012,dft,jarvis_alex,,0.2485175364413746,252.4322096329653,379.2635803222656,1.6484547
Ca2Cu2Si2,0.118,dft,jarvis_alex,,0.3028103772169523,221.67679893668608,403.0143737792969,5.172472
CHgRhY2,1.552,dft,jarvis_alex,,0.4920412508965959,132.84569752427802,298.7286682128906,2.3842838
GaHf2Mo,1.219,dft,jarvis_alex,,0.4386894250027675,175.2263587245697,287.7391052246094,2.2482393
MoP,0.04,dft,jarvis_alex,,0.2651815159873175,334.1907398674668,577.0506591796875,0.75958216
PtRu2Ta,0.623,dft,jarvis_alex,,0.3733585800304255,222.39375589001205,370.9815368652344,3.0616078
Ge2Nb2V2,0.833,dft,jarvis_alex,,0.3893738817390484,228.60455827955795,430.7996520996094,4.395571
AlBe4Os,2.1,dft,jarvis_alex,,0.4158064774664323,396.6897715032511,726.0604858398438,3.6739674
Hf2NTl,0.486,dft,jarvis_alex,,0.3647552964729297,201.9252816253299,280.6428527832031,2.5176466
CaH3Pt,0.661,dft,jarvis_alex,,0.3326047846754811,540.6811984300758,330.6885986328125,0.84821916
As2Ru2Sr,0.235,dft,jarvis_alex,,0.3415643792251465,156.21793535046723,302.9714660644531,1.7616718
Ru2SnZr,0.0,dft,jarvis_alex,,0.0305071834893864,252.21629390852635,420.7671813964844,0.07251575
BeCoFeSi,0.0,dft,jarvis_alex,,0.1673738354016938,362.4269294047487,676.9849853515625,3.13603
Rh3Ru,1.62,dft,jarvis_alex,,0.4284996538165497,262.4123562260287,464.5278015136719,5.4247766
AlCdZr2,0.496,dft,jarvis_alex,,0.375263177754646,171.00991034982815,329.6438903808594,3.737784
Cu2PdZn,0.0,dft,jarvis_alex,,0.124774490346149,190.16164199176765,297.7532043457031,0.7760795
CHgSc2Ti,0.513,dft,jarvis_alex,,0.3762856969707228,173.66393299824864,413.1108703613281,3.909882