formula,Tc,tc_source,dataset,pressure_gpa,lambda,wlog,debye_temp,dos_ef
Mo3Ta2Ti,4.019,dft,jarvis_alex,,0.5594325485797669,214.02193035559,391.0835266113281,6.858116
InLi2Rh,0.024,dft,jarvis_alex,,0.2700650038153311,159.5228557460722,276.37921142578125,1.7936692
GaHfLiRh,2.476,dft,jarvis_alex,,0.5270160361060158,162.4264476221591,295.6346740722656,4.4423375
CrReW2,5.411,dft,jarvis_alex,,0.6009953702363104,228.9406082286978,385.6512451171875,2.8726575
OsRu2Sc3,1.479,dft,jarvis_alex,,0.4501502944982326,187.76075328048228,388.1365051269531,7.035374
RhRuZr2,2.91,dft,jarvis_alex,,0.5481338543964142,166.26148619863224,330.5465393066406,2.8885078
FeNiTi2,3.308,dft,jarvis_alex,,0.5400721817890984,198.96581080978928,439.1687316894531,3.9948242
AlAu2Sc,3.857,dft,jarvis_alex,,0.8825190872690485,64.02569320824938,194.628173828125,1.2535343
CoLiSc2,0.113,dft,jarvis_alex,,0.3044710167944653,201.061212793381,369.5135803222656,3.2142286
VW2,0.001,dft,jarvis_alex,,0.2118916099363038,266.34025126189255,381.5117492675781,1.5421126
Rh2ScSi,0.574,dft,jarvis_alex,,0.3982503458999649,137.77815378424236,434.0038146972656,0.9502024
B2La2N2Ni2,2.147,dft,jarvis_alex,,0.4288800424801704,345.0453337405793,457.862548828125,3.5501716
RuTcZr2,0.018,dft,jarvis_alex,,0.2566668688909611,232.5731887369757,376.3614196777344,2.065382
Nb2Sc2Si2,4.266,dft,jarvis_alex,,0.5868607037599456,193.65164291944373,493.0647277832031,7.000205
AlSc2Zn,0.003,dft,jarvis_alex,,0.2328070169953836,201.1487249721883,402.1209106445313,3.227732
Ti5Zr,16.733,dft,jarvis_alex,,1.1985756123206412,172.4553145935863,329.1565856933594,9.679519
Al5Cu,0.838,dft,jarvis_alex,,0.3811960371683787,261.91567599804955,514.040771484375,2.3903773
CoRhZnZr,0.0,dft,jarvis_alex,,0.1377891430688201,201.84307521445533,344.9168395996094,0.7612689
BOs,0.013,dft,jarvis_alex,,0.2451836242063731,334.96625749176354,532.7039184570312,0.8251538
Ni3Sn,0.0,dft,jarvis_alex,,0.1713119417358333,200.9773414621752,388.0057373046875,2.371609
NiTcZr2,0.924,dft,jarvis_alex,,0.4151163196858682,176.46597928065398,338.62158203125,3.2940922
Sc2Si2Y2,2.273,dft,jarvis_alex,,0.4812207999958224,214.31677003589692,420.1702575683594,8.032277
As2Si2V2,0.0,dft,jarvis_alex,,0.1661973267498916,305.55040932346026,530.18212890625,1.0043367
Ca2Ni2Si4,0.262,dft,jarvis_alex,,0.3276225121823252,242.32444696854984,468.8835754394531,3.1115108
Pd2ZnZr,0.077,dft,jarvis_alex,,0.2994963992521526,161.16513721317173,306.5046691894531,4.1815786
BeCu2Li,0.094,dft,jarvis_alex,,0.2889877129265848,283.7647343740237,416.9037170410156,1.1556065
PdSc2Tc,0.0,dft,jarvis_alex,,0.2048866630267409,228.6692972801889,346.9905700683594,3.0216622
MoNb2Tc3,7.262,dft,jarvis_alex,,0.6762254786748022,220.5472249581328,422.2353515625,3.3821888
Al2CuV,0.0,dft,jarvis_alex,,0.1653787314465443,301.185789537535,511.013916015625,1.5227834
B2Mg,8.542,dft,jarvis_alex,,0.485439708650494,776.9545189138493,1009.2352294921876,1.1331353
H2InZr2,0.724,dft,jarvis_alex,,0.3877014056752476,203.5154678120317,371.24517822265625,3.0876932
H2Zr,1.326,dft,jarvis_alex,,0.5100560026879906,98.5516941571151,442.1496887207031,1.594982
Pt2RhTc,6.029,dft,jarvis_alex,,0.9490805980810362,87.72832456501563,376.6548767089844,4.3212066
GaPdTi6,5.037,dft,jarvis_alex,,0.5898133929937334,225.89076045049745,371.7541809082031,13.277954
AlRh2Zn,0.0,dft,jarvis_alex,,0.1080269104163336,225.86623279606383,420.1618957519531,1.4134036
Cu2,0.0,dft,jarvis_alex,,0.131564947296292,223.8118721307676,344.87017822265625,0.94896626
Al2Ti2Zr2,2.911,dft,jarvis_alex,,0.5257410413217778,193.0881451114807,451.7117919921875,5.7896686
Nb2ReRu,10.116,dft,jarvis_alex,,0.8517908821405138,182.30909241506464,363.5613403320313,3.1607375
Mg2SnZr,0.01,dft,jarvis_alex,,0.2491730384852863,188.6848686083302,325.7507629394531,2.1873138
Co2Sb2,0.024,dft,jarvis_alex,,0.2654147814365941,197.62930246891267,331.0281677246094,2.970451
Ti3,6.72,dft,jarvis_alex,,0.6386867678536123,238.1008466402573,458.5559692382813,2.7142713
LiRh2Sc,0.0,dft,jarvis_alex,,0.2066140095136056,181.6448531706433,383.4909362792969,1.6284667
CrH2V2,2.739,dft,jarvis_alex,,0.4699475972978849,285.0996329561094,694.9263916015625,2.48392
PtRuSc2,0.0,dft,jarvis_alex,,0.1325631741461105,228.91451671076643,326.0804138183594,0.6488195
CHfNZr,2.025,dft,jarvis_alex,,0.4092108405190047,417.4354731140619,512.73876953125,1.6096209
Mn4MoTa,15.686,dft,jarvis_alex,,0.9428754034457534,234.0806768807696,428.8882141113281,9.385452
MoNbTa2,5.083,dft,jarvis_alex,,0.6480388857452299,172.33892144739715,305.9580383300781,4.8846292
Al3Ga,3.029,dft,jarvis_alex,,0.5154704111792695,216.21358024617103,481.5377197265625,0.81656456
Be5Zr,0.672,dft,jarvis_alex,,0.3499697196637111,372.9950018638025,819.0423583984375,2.8824558
LiNiRuSi,0.0,dft,jarvis_alex,,0.1651326129659197,278.79178044663223,500.053955078125,2.1989706
H2MoRh2,1.646,dft,jarvis_alex,,0.4182278595539072,301.2251806565302,438.0671691894531,2.2710714
H2Zr,0.065,dft,jarvis_alex,,0.2895105632964735,191.7467206295363,367.0588989257813,0.7918784
LiRuZr2,1.219,dft,jarvis_alex,,0.4359507078206474,180.5447997376696,307.4053039550781,2.0705729
InLi2Mg,0.042,dft,jarvis_alex,,0.2769521978935365,201.95997161313667,294.1853332519531,1.3475882
Cr4OsRe,14.52,dft,jarvis_alex,,0.8677021471527556,251.70163875692376,393.7910461425781,7.1144876
BeNi2Zn,0.0,dft,jarvis_alex,,0.1540143885421857,277.59782352867626,446.9176940917969,1.1962787
NPbSc3,0.317,dft,jarvis_alex,,0.3296478974464036,278.9477294611119,417.1258544921875,2.74759
GeLi2Pt,2.157,dft,jarvis_alex,,0.523916945386174,144.44302144055112,288.8995361328125,1.4958313
HLi2PbRh,1.366,dft,jarvis_alex,,0.4545508388998067,165.36217439910698,305.6195678710937,1.4283707
AlGaNa2,0.105,dft,jarvis_alex,,0.3138700701481436,140.7959541968114,282.447265625,1.0439316
MgPd5,0.001,dft,jarvis_alex,,0.2209820190801883,182.2592174334881,286.6642761230469,9.49546
HfSbTc2,0.0,dft,jarvis_alex,,0.1951344514820354,216.74617032942572,355.96600341796875,2.7931578
LiPtRhSi,0.001,dft,jarvis_alex,,0.2205470976591345,195.0538886703465,383.2970275878906,1.2097458
HLi2Pd2,24.177,dft,jarvis_alex,,3.476196237145776,78.85921954408519,345.89654541015625,1.5519047
AgAl3,0.702,dft,jarvis_alex,,0.3747457782889273,244.3561931022548,389.4889831542969,1.4246156
MoTi2Zn,5.059,dft,jarvis_alex,,0.6133130203725505,200.9022447954393,430.3836975097656,4.6214824
AlReTi2,0.191,dft,jarvis_alex,,0.3147016086855832,249.7133145082832,388.9281311035156,0.86057204
C2Zr3,0.224,dft,jarvis_alex,,0.3143319009179757,295.4182933633325,596.6969604492188,1.8468611
CdHg2Sc,0.083,dft,jarvis_alex,,0.3159869364308461,104.84162320816662,165.2048797607422,1.7239625
Al2CoRh,0.0,dft,jarvis_alex,,0.1049460331432689,279.42848153089375,529.9241333007812,1.5783964
NbPt2Ti,1.923,dft,jarvis_alex,,0.4685997136411601,203.39603376109,376.1091918945313,3.0866253
Hg2SrY,0.408,dft,jarvis_alex,,0.4042350255935406,90.0441410065136,166.57093811035156,4.0264254
CoMoNi2,0.898,dft,jarvis_alex,,0.3856999374585031,261.3837553570478,480.3718872070313,4.674372
Pt3Ta,0.022,dft,jarvis_alex,,0.2663538249875342,169.07486601096534,290.8121643066406,1.1089156
In3La,0.501,dft,jarvis_alex,,0.3997933525647287,117.94222818118726,229.4276123046875,2.3766038
LiRuSc2,0.001,dft,jarvis_alex,,0.2124159830213476,228.68540286517828,375.8645629882813,1.8283153
MgNiRhSn,0.459,dft,jarvis_alex,,0.3987760429791949,109.40297304155868,319.26324462890625,3.1546383
Be4W2,0.006,dft,jarvis_alex,,0.2330164472281002,343.9062436452335,595.4925537109375,3.5851312
RuTaTi2,3.964,dft,jarvis_alex,,0.6021901735519936,166.0711136329779,391.4873352050781,5.1481524
Ga2H2La,14.532,dft,jarvis_alex,,0.8511162268591509,258.84188801148343,367.7121887207031,0.91774344
MgNiRhZn,0.0,dft,jarvis_alex,,0.1148619732083635,181.0705601470369,368.2400817871094,1.941317
PdSbTi2,1.658,dft,jarvis_alex,,0.4739180099373726,166.64456104578983,324.59326171875,4.9007945
NiRe5,4.578,dft,jarvis_alex,,0.6020563117373955,192.7673512629093,407.6092834472656,5.535005
BeRh2Tc,6.955,dft,jarvis_alex,,0.7663958987606176,155.17048390336072,485.7477111816406,2.084307
N2Zr3,3.975,dft,jarvis_alex,,0.5025986991359801,312.8153768420416,584.8496704101562,2.7415109
CaInNY2,0.0,dft,jarvis_alex,,0.1745956341605015,192.1530689505722,368.6842956542969,1.2884376
GeNbRuTc,0.0,dft,jarvis_alex,,0.2019103265893362,231.0939164274913,404.15618896484375,0.59531045
BeNbRu2,3.224,dft,jarvis_alex,,0.5235777823250773,217.12232741116964,448.8398742675781,2.9949403
Ni2PtW,0.092,dft,jarvis_alex,,0.2964691225177916,213.40443072074584,359.5416564941406,2.430759
TaTc3Ti2,0.39,dft,jarvis_alex,,0.3410515671590488,262.7464575414704,390.1924743652344,5.145667
Ni4PbSc,0.517,dft,jarvis_alex,,0.3819585478294145,159.58012077380187,327.2486877441406,5.5493345
Cr4ScZr,2.155,dft,jarvis_alex,,0.4638296130984355,238.40809734385303,385.89849853515625,5.589957
AlOSc2Y,1.418,dft,jarvis_alex,,0.4346065261839422,213.01829219908657,488.1636352539063,3.1212976
CrReTa2,0.0,dft,jarvis_alex,,0.2030018556941494,255.90950621426097,344.6054382324219,3.146577
RuTi5,15.396,dft,jarvis_alex,,1.0969080901609658,179.843861910649,418.0179138183594,8.591573
InSSc2,1.209,dft,jarvis_alex,,0.4992130044943229,97.55534325421542,330.0133972167969,2.1501827
SiTc2,1.91,dft,jarvis_alex,,0.431432254479173,298.63920461973703,522.3742065429688,1.3147995
CuRh2Tc,1.539,dft,jarvis_alex,,0.4343339498691811,232.8159696581376,425.2261047363281,3.1955714
SnV2,0.179,dft,jarvis_alex,,0.3071572647283577,292.8267032355989,374.2625122070313,2.4936116
NiRhZn2,0.0,dft,jarvis_alex,,0.0924295462251484,179.7629103518211,353.6363525390625,1.206109
MgNbRu2,0.051,dft,jarvis_alex,,0.2803540659795081,214.53716741588468,397.3581237792969,2.5339854
Cr4HfTa,0.277,dft,jarvis_alex,,0.3231296915215266,288.067114275176,360.4048156738281,2.737822
PbTi6Tl,6.618,dft,jarvis_alex,,0.7116618228490672,175.73452807370182,308.5164489746094,6.676158
BeMnRu,0.2,dft,jarvis_alex,,0.3120046242283487,282.6362541742555,562.7408447265625,1.6954553
FeTaTi2,2.737,dft,jarvis_alex,,0.5127216739778773,199.3935536418784,425.2865905761719,3.9858046
AlFeSc2,0.002,dft,jarvis_alex,,0.2239060252304369,250.1744852050521,429.4199523925781,1.7370217
Al3FeLa,0.0,dft,jarvis_alex,,0.1793759011648994,253.25770384186407,405.4423522949219,1.3568418
Ca3HIn,0.177,dft,jarvis_alex,,0.3448034014096174,109.61953052276392,290.7348937988281,2.419859
Nb2OsW,0.762,dft,jarvis_alex,,0.387034609096586,217.15842620823244,368.1697692871094,2.0683959
GeHTa,0.002,dft,jarvis_alex,,0.2224171629806753,271.77630235363534,349.1856689453125,0.6322163
Al2Si4Y2,0.607,dft,jarvis_alex,,0.3687715519544368,234.31533683566,415.89654541015625,2.5044641
MoTc2Ti,0.068,dft,jarvis_alex,,0.2797835933781715,290.7717139900559,453.7388916015625,1.2258633
CGaMo2,6.451,dft,jarvis_alex,,0.6074381723968663,262.9448887519351,533.9100341796875,1.8642392
OsTcTi2,0.172,dft,jarvis_alex,,0.3081318121688464,273.1696756229128,414.60003662109375,3.9662595
N2Tc4,12.315,dft,jarvis_alex,,0.6944243901286938,347.70134478814174,620.9241943359375,2.6787286
CaRh2Sc,0.0,dft,jarvis_alex,,0.1141985515792785,200.876009142564,329.2048645019531,0.71312994
H2Ti2Zn,2.609,dft,jarvis_alex,,0.4994313806772446,210.21592909915267,451.4425964355469,3.0951002
OsRe5,5.78,dft,jarvis_alex,,0.6476916324122892,197.11573474857903,422.7423400878906,4.051232
GaMnTi2,0.166,dft,jarvis_alex,,0.3086796886636516,259.7601945061071,434.3976745605469,1.267848
CCoMgY2,0.092,dft,jarvis_alex,,0.2963854531140948,213.11890660142444,385.8545837402344,2.975742
MgOY3,0.316,dft,jarvis_alex,,0.3455973141058746,192.4502802154684,415.42388916015625,2.345771
GaRu2Ti,0.072,dft,jarvis_alex,,0.2875487554271452,228.9509731848092,423.5679016113281,3.3006563
Al2Ni4Zr2,0.132,dft,jarvis_alex,,0.305418659553113,226.9267061684817,445.3006286621094,7.4056234
NTlZr2,1.737,dft,jarvis_alex,,0.4454294023630674,231.42141819052537,332.1151428222656,1.8755894
AlCuLiY,0.0,dft,jarvis_alex,,0.1424830498921108,238.7804876671921,314.7001647949219,0.55701447
Cu3S2,0.152,dft,jarvis_alex,,0.3179062388066966,182.04262908142115,305.3779296875,12.8084135
LiZn2Zr,3.868,dft,jarvis_alex,,0.6283843571191312,142.74607883082092,276.2873840332031,2.3315446
AlNaPd2,0.0,dft,jarvis_alex,,0.1479373731477569,190.30432378227064,325.4562683105469,0.99645543
MgPbRh2,0.001,dft,jarvis_alex,,0.2209508175456719,141.71584947960963,278.1659240722656,2.5124733
CCoY2Zn,0.652,dft,jarvis_alex,,0.3935677887104427,167.563686070049,379.4980163574219,2.6850288
AlGaRu2,0.129,dft,jarvis_alex,,0.3074221986898579,209.0888977472624,453.23382568359375,4.3006787
Hf2RuTc,0.029,dft,jarvis_alex,,0.2675309591863674,212.558155610362,321.32794189453125,3.9722624
Co2Si2Zr,0.001,dft,jarvis_alex,,0.209147947178388,290.487961629271,567.6168212890625,2.688262
CdRh2Zn,0.002,dft,jarvis_alex,,0.2267240645188942,149.23654790867633,310.0257263183594,3.1396682
AgRuSc2,0.008,dft,jarvis_alex,,0.2481037051496331,166.99740198416228,332.8414611816406,1.9420751
PtRhW2,1.775,dft,jarvis_alex,,0.4663657852517142,191.976256683887,367.4684143066406,2.738512
MoZn3,0.0,dft,jarvis_alex,,0.1374683287604438,227.15513724015685,347.2493591308594,1.5788348
CoGaLiV,0.0,dft,jarvis_alex,,0.0528488688072462,297.1284648514857,404.2760925292969,-0.05827545
AgAlLi2,0.211,dft,jarvis_alex,,0.3185062706913079,247.9160153376595,315.4058532714844,1.66842
Nb2RuW,1.291,dft,jarvis_alex,,0.4227513736242955,224.03256699122315,360.1945495605469,2.5635068
AuNi4Ti,0.0,dft,jarvis_alex,,0.1967740953826389,221.2202049143601,362.3737182617188,6.719324
Mo2W,1.397,dft,jarvis_alex,,0.4185586350120949,255.47309371016212,403.0083312988281,1.6687331
PdRh2Ta,0.001,dft,jarvis_alex,,0.216152037223274,216.0676314901398,384.1921997070313,3.3874927
AuRhTi6,10.092,dft,jarvis_alex,,0.8933924196088223,164.8514745014316,308.9985046386719,11.853412
BeLiPd2,0.0,dft,jarvis_alex,,0.1685495427681981,273.64525048013155,393.2721862792969,0.7347223
Li2PPt,2.79,dft,jarvis_alex,,0.5213110124696535,190.5015126841112,322.930908203125,0.79680985
NbTaW2,0.2,dft,jarvis_alex,,0.3246072232400989,200.1057150191765,344.9902038574219,2.7579043
AuHgPd2,0.0,dft,jarvis_alex,,0.121586451057621,105.71476980718148,153.99432373046875,1.3012837
AuInTi2,1.69,dft,jarvis_alex,,0.512170566421219,123.41520703814358,294.4930419921875,4.517295
Mo2PtRu,2.062,dft,jarvis_alex,,0.4629740436711557,230.4460363547684,395.7325744628906,2.193873
HInNbZr2,4.95,dft,jarvis_alex,,0.6664504870411114,155.08282681252754,366.7942199707031,4.7926493
CCdCoY2,0.365,dft,jarvis_alex,,0.3598829720616933,165.98805334871804,353.7653503417969,2.7994068
Mn4Mo2,13.083,dft,jarvis_alex,,0.8182048497168918,255.397770475386,466.2765808105469,9.335047
GaRu3Ti2,0.001,dft,jarvis_alex,,0.2108108116075811,262.51306361757423,451.21783447265625,3.999017
Rh2RuTa,0.377,dft,jarvis_alex,,0.3447741946816997,234.40657274035755,424.7316589355469,3.2038224
LiMgPb2,2.493,dft,jarvis_alex,,0.6819639363841591,73.40440092656374,183.4505157470703,2.2667656
CoMgNbRu,0.0,dft,jarvis_alex,,0.1229961647576991,254.05238047829448,408.6061706542969,1.4278616
Ca2Ge2Zn2,0.006,dft,jarvis_alex,,0.2438551035448058,170.3404571873126,297.3135070800781,1.7695066
LuRu2V,0.389,dft,jarvis_alex,,0.3494481025799346,218.71593562879332,347.6307373046875,2.0143762
CRhV2,1.814,dft,jarvis_alex,,0.4352559298756752,270.5366940204518,566.742919921875,2.6999898
CdGaZr2,0.419,dft,jarvis_alex,,0.3699614250535033,158.68411318615918,301.4284973144531,5.33371
HPd2PtSc,5.499,dft,jarvis_alex,,0.5551059595091058,299.576061884748,308.04364013671875,0.82609975
Al4Nb2Y,0.425,dft,jarvis_alex,,0.3491181296222404,240.3900215923008,483.0724792480469,3.5423903
La3NSn,1.289,dft,jarvis_alex,,0.4615585990810841,145.535247235335,252.3315887451172,3.5910914
Ta2W2,0.105,dft,jarvis_alex,,0.3022956428172615,199.30956330456348,337.4775390625,2.6010222
TaW2,0.0,dft,jarvis_alex,,0.1820443802772992,219.0177199858118,362.5026550292969,1.4630759
GaTcTi2,0.035,dft,jarvis_alex,,0.267105422317966,261.8743644151997,370.8260498046875,1.2088166
PdZr2,0.834,dft,jarvis_alex,,0.4302617099370324,131.97567804939868,306.6427917480469,2.0512667
P2Pd2Y,1.59,dft,jarvis_alex,,0.4870856622524981,141.9926516095776,364.8270263671875,1.5002171
AgAl2,0.193,dft,jarvis_alex,,0.3135901445930618,260.8939584516312,365.089111328125,0.65593755
H2SnTi2,1.048,dft,jarvis_alex,,0.3905528364102637,282.15151212289544,398.6149597167969,1.8841563
AlBe4Re,11.665,dft,jarvis_alex,,0.7318799439029046,288.5170037398431,729.04833984375,4.5178647
B4TaTi,0.192,dft,jarvis_alex,,0.2939756296157631,482.79759756225286,805.725830078125,2.2386866
Rh3Ru,1.476,dft,jarvis_alex,,0.4206840694070415,262.94380453109494,494.9060363769531,5.5159044
H2MgY2,0.026,dft,jarvis_alex,,0.2628180555522859,244.27678135332985,419.5612487792969,2.1733036
AlMnTi2,0.466,dft,jarvis_alex,,0.3482823178370491,268.5603359456367,499.7415466308594,1.486476
MoZnZr2,6.034,dft,jarvis_alex,,0.7128629742950178,159.87874613074823,305.80963134765625,4.5256586
ReTc3,11.45,dft,jarvis_alex,,0.8349308705189179,214.8736184117357,468.69482421875,4.1036544
Tc2WZr,0.0,dft,jarvis_alex,,0.2087177079481929,245.844362769878,398.5597534179688,0.98379296
CuInNiZr,0.07,dft,jarvis_alex,,0.2996157848600501,145.8394483653773,317.4100341796875,1.9116966
CoCuScZr,4.185,dft,jarvis_alex,,0.6525664052709648,139.27300886537734,321.8110656738281,2.4630806
Sn2Zr6,6.529,dft,jarvis_alex,,0.8113247448977109,128.88986615259245,306.1000061035156,7.165851
RuSiTcTi,0.214,dft,jarvis_alex,,0.3147316149092199,279.9323379811271,480.4439392089844,2.1081138
LiPdSiZn,2.491,dft,jarvis_alex,,0.5722619206497825,122.40422302537706,331.4396057128906,1.2156421
Re2TaTi,0.011,dft,jarvis_alex,,0.2472771033028603,239.62672954344364,356.7069396972656,2.2123983
MgZr3,2.552,dft,jarvis_alex,,0.5190290610953566,177.92405888262428,303.606201171875,3.1534214
Ru2ScTa,0.0,dft,jarvis_alex,,0.166573411191317,237.5543831290856,392.2859802246094,0.8933223
Mn3N,0.251,dft,jarvis_alex,,0.3060719001994997,424.2425389338838,668.42724609375,3.6692173
OSnSr3,0.0,dft,jarvis_alex,,0.1047801148748951,122.42591297503976,217.0029754638672,0.024191707
Mo3Nb5,1.469,dft,jarvis_alex,,0.4320764545706491,227.8253731991932,315.1543273925781,8.7120495
FeMoTa2,0.002,dft,jarvis_alex,,0.2217584973610545,244.2740796991583,363.2168273925781,1.7686943
Cr4MoTc,25.948,dft,jarvis_alex,,1.6004683088196423,188.86677567265136,462.0329284667969,9.455769
ReTcV2,0.483,dft,jarvis_alex,,0.3441534465030632,303.9568880231284,442.9885559082031,2.1816988
InNbRh2,0.127,dft,jarvis_alex,,0.3108324189650848,185.92021898786803,334.2673645019531,1.5733479
BeCaP,0.485,dft,jarvis_alex,,0.3341091550427608,383.7750917078061,618.6326904296875,1.5993745
AlOs2Ti,0.138,dft,jarvis_alex,,0.3089089280259061,214.41700622434823,390.4917602539063,3.4348905
Co2InSc,0.0,dft,jarvis_alex,,0.1125140084088965,243.53279886544283,401.6198425292969,0.6653802
TaTc2Ti,0.055,dft,jarvis_alex,,0.2769917571623512,266.2365201373389,396.5971374511719,3.315192
Ni2P2Sc,0.656,dft,jarvis_alex,,0.3661152431168563,266.22430162680325,457.0119934082031,4.633866
Si2Ti2V2,0.029,dft,jarvis_alex,,0.2605948253602674,301.6109559666488,572.43701171875,3.3375177
InTlZr6,1.773,dft,jarvis_alex,,0.4786819843722805,170.97092514073393,315.8858337402344,8.194391
AlPtRuZn,0.0,dft,jarvis_alex,,0.1211869387610985,217.53482433778663,374.9396667480469,1.9213562
Be2CuNi3,0.0,dft,jarvis_alex,,0.1345142050952178,308.0944921394612,500.9117126464844,2.612928
Cr3H4Ni,11.198,dft,jarvis_alex,,0.7391778219987186,270.4975160162659,657.3201904296875,3.1295063
Mo5NbW2,0.213,dft,jarvis_alex,,0.3180521555885095,253.5615096904693,408.5828552246094,3.6000674
Nb2Ni2Si2,0.042,dft,jarvis_alex,,0.2705306971635941,269.6441709148777,508.8672180175781,5.652458
Ga2PtRu,0.134,dft,jarvis_alex,,0.321234908447321,146.57475248627358,327.2754211425781,1.0343361
Ga2Ti4,3.256,dft,jarvis_alex,,0.5166220236463425,230.99825808925087,432.23150634765625,8.632271
MgTiZn2,0.013,dft,jarvis_alex,,0.2582047209155758,157.73300513415427,378.6661682128906,1.8149486