formula,Tc,tc_source,dataset,pressure_gpa,lambda,wlog,debye_temp,dos_ef
CdMgZr2,5.127,dft,jarvis_alex,,0.7138155642953335,135.30409186841203,289.4024658203125,4.940722
Cd2LiPt,0.074,dft,jarvis_alex,,0.3136211338118484,100.32965287493413,175.63973999023438,1.4131323
MgPdSc2,1.387,dft,jarvis_alex,,0.4875570718304602,123.417950499978,316.6306457519531,4.0893693
CuPt3Rh2,0.304,dft,jarvis_alex,,0.3460455083325601,183.38585334120225,323.3835754394531,9.342837
La2P2Ti2,0.229,dft,jarvis_alex,,0.3364146963501919,171.44205772043725,361.1526184082031,6.481694
SnZnZr6,4.878,dft,jarvis_alex,,0.6517418849707751,163.24765424482558,284.8345031738281,5.949113
OTi4,2.624,dft,jarvis_alex,,0.4876887771642855,233.57081278428328,489.71533203125,5.060412
GaMg2Ni3,0.033,dft,jarvis_alex,,0.278714855113795,150.21732693981812,431.3241271972656,2.9294076
Ru3Sc2Ti,0.05,dft,jarvis_alex,,0.2772185612969208,239.90560876545644,436.0263671875,5.8897247
MgSc2Tc,1.605,dft,jarvis_alex,,0.4638992015286079,177.38952328578594,356.7135009765625,4.5321436
Fe2NbTi3,2.678,dft,jarvis_alex,,0.5597390993813041,141.74658724112578,477.9474792480469,4.248453
SiYZn,0.312,dft,jarvis_alex,,0.344098055317827,196.56052077379448,383.4153137207031,1.2428755
B2LaRu3,6.183,dft,jarvis_alex,,0.7075805328324306,165.7894633023437,460.1206359863281,3.799396
LuRu2Y,0.352,dft,jarvis_alex,,0.3601580862317234,159.8461515886432,278.4457092285156,5.1855783
Ni2RhW,0.099,dft,jarvis_alex,,0.2952388620473039,238.25014989103693,407.5582275390625,3.4157917
LuRhSi3,2.802,dft,jarvis_alex,,0.5226262720129297,189.54761519841736,392.3722839355469,1.4278588
CuPt2Ti,0.0,dft,jarvis_alex,,0.1653350306385138,209.0405296357721,327.3932800292969,2.2598085
MgNi2Zr,0.417,dft,jarvis_alex,,0.3677507676329052,164.07793696746788,347.4113464355469,2.6032481
GaLiRhZn,0.68,dft,jarvis_alex,,0.4079916132869569,142.3550170489419,332.3417663574219,1.6308476
PtReRh6,1.644,dft,jarvis_alex,,0.4413218545325588,229.8442132390404,412.6981506347656,7.015162
Mn2TaV,0.001,dft,jarvis_alex,,0.2167581231722141,307.94030188496026,437.0215148925781,2.4218857
AuH2Na2,7.397,dft,jarvis_alex,,0.9653507737115604,105.29916348801702,245.12307739257807,1.3620163
AlCrV,0.816,dft,jarvis_alex,,0.3703196308116072,307.2503646637021,601.4600830078125,2.0115843
LiSe2Zr,7.594,dft,jarvis_alex,,1.2073703591474825,76.33340342172356,302.3477783203125,2.2376606
O2Pd2,0.0,dft,jarvis_alex,,0.1329100540668638,242.3093250293073,298.8116760253906,1.1459205
AuBe4Ni,0.023,dft,jarvis_alex,,0.2556757477002634,312.7331557789293,584.4993896484375,2.2498295
LiRhY2,0.101,dft,jarvis_alex,,0.3076078798704798,163.10086502755763,274.0732116699219,2.7282736
InPtRh2,0.164,dft,jarvis_alex,,0.3231135537678037,170.81364442253567,303.2098083496094,3.3861985
AlFe3Si2,0.0,dft,jarvis_alex,,0.1445202469060651,347.22230123053816,647.9601440429688,4.796265
N2Ru,0.053,dft,jarvis_alex,,0.2771365699433284,252.82179461892247,468.9272766113281,0.8236849
Hf2MoRh,0.131,dft,jarvis_alex,,0.3100022993010212,197.03698820494503,312.1743469238281,5.445224
GeLiPd2,2.727,dft,jarvis_alex,,0.6196839091052195,104.6650197366716,271.2754211425781,2.1733859
Mo3W,1.48,dft,jarvis_alex,,0.4232978064090656,255.08096684568093,416.6772766113281,2.957442
C4Hf3Zr,0.0,dft,jarvis_alex,,0.1705115853323507,401.7609374437428,496.1159057617188,1.3619096
BeTi,0.004,dft,jarvis_alex,,0.2305835712206045,272.8262527787191,631.2435913085938,0.6311989
MoV,0.74,dft,jarvis_alex,,0.3711911798141685,274.261956884559,426.60980224609375,1.7042979
Ca3CdN,0.033,dft,jarvis_alex,,0.2710740128983479,207.0923307251875,330.221923828125,2.7331047
Nb2Ni6,0.016,dft,jarvis_alex,,0.2533509336438099,245.09274296539803,441.2375793457031,4.6833124
NiSc2Zr,5.604,dft,jarvis_alex,,0.6961772733205677,157.5968819914555,347.6847229003906,4.2100906
LiOSnY2,0.119,dft,jarvis_alex,,0.3016312998242486,231.80432549632712,382.7320251464844,1.9150717
Al2C2Ta2Ti2,0.0,dft,jarvis_alex,,0.2025998492250917,332.23286384189043,573.66845703125,2.1366856
BeRh,0.227,dft,jarvis_alex,,0.3170811324954917,277.8246828138859,510.6371154785156,1.7396109
AlGa2Zr,0.029,dft,jarvis_alex,,0.2686480561317489,205.9386269291508,445.0983276367188,1.0206513
Nb2NiRh,3.946,dft,jarvis_alex,,0.5704100689430236,197.09492435133515,408.196533203125,2.9857273
AlBeRh2,0.0,dft,jarvis_alex,,0.1332870763701888,283.7646737173968,517.8135375976562,1.1253649
CdLa3N,3.675,dft,jarvis_alex,,0.7480859404798978,86.24557232732971,271.2220153808594,4.8364725
Co2LiP2Y,0.131,dft,jarvis_alex,,0.2979158841567603,286.8885620428987,512.4852294921875,3.3023348
CoSi2,1.171,dft,jarvis_alex,,0.3947655292649293,296.1857916180084,518.240966796875,0.952364
PPdRu,0.001,dft,jarvis_alex,,0.2179876153019076,240.4314630135219,374.48583984375,1.7639636
CLaRh3,3.026,dft,jarvis_alex,,0.5680955843509238,152.5310477467803,301.44342041015625,0.9233101
AuBe2Cu,1.418,dft,jarvis_alex,,0.4308701562804491,222.309684018674,319.6879577636719,1.0813581
PtRh2Ti,0.036,dft,jarvis_alex,,0.2700831631173279,235.34235881212007,422.3610534667969,2.336334
CInZr2,0.002,dft,jarvis_alex,,0.2235148615115092,246.74364940208145,426.8294982910156,0.7313078
AlRu,0.225,dft,jarvis_alex,,0.3240606591520228,228.6954661571917,500.9212646484375,2.1136956
MgNbOs2,0.288,dft,jarvis_alex,,0.343170440987662,185.09455949689587,349.4758605957031,3.2780032
AgNZr3,1.554,dft,jarvis_alex,,0.4926143144387795,132.3854410699508,401.1430358886719,3.1589117
Ni4V4Zr4,11.174,dft,jarvis_alex,,0.9473222852614884,164.47240924572122,371.07073974609375,17.711695
Al3AuSr,0.199,dft,jarvis_alex,,0.3242005400995474,201.30538975841245,269.5656433105469,2.2533054
CTa,8.467,dft,jarvis_alex,,0.6475218570469757,286.4355497493291,567.7320556640625,0.6100735
FeHfNbTc,0.0,dft,jarvis_alex,,0.1809326602262365,257.0736807146501,368.6036682128906,1.7063595
Mo2N2Nb2,3.692,dft,jarvis_alex,,0.5103524888987347,273.751910867773,615.368408203125,0.81839883
MoReW2,6.8,dft,jarvis_alex,,0.6808288398317057,202.94064935316632,380.1120300292969,3.3181903
LiMgPt2,0.001,dft,jarvis_alex,,0.2236466834795571,150.9742844968844,297.1025390625,1.3528225
AgAlZr2,0.941,dft,jarvis_alex,,0.4170173728243795,175.26594443031206,358.3875427246094,3.3873355
InMg2Ni,0.001,dft,jarvis_alex,,0.2180352106499523,153.10132333246676,289.7851867675781,1.4666541
Ru2SbZr,2.161,dft,jarvis_alex,,0.5426257460097791,127.64611684592708,382.6428527832031,1.7777753
Os2ScTi,0.028,dft,jarvis_alex,,0.2650609558175168,231.6900098409492,394.8136901855469,3.472473
MoV2,6.24,dft,jarvis_alex,,0.6492289500558234,210.18126015632623,404.9061279296875,3.8388636
InNSc2Ti,0.024,dft,jarvis_alex,,0.2587109639094112,277.7519385077847,497.318359375,3.3360918
AlHfRhRu,0.0,dft,jarvis_alex,,0.0442712374634541,254.08108969545373,366.3641662597656,0.8317977
Ga2PdTc,0.674,dft,jarvis_alex,,0.3971056586871197,164.87227690975266,349.4239807128906,2.2840874
Mn2TaV,0.013,dft,jarvis_alex,,0.2463081684160497,300.4602671934701,434.5447692871094,1.2299726
FeNiV6,2.929,dft,jarvis_alex,,0.4697921025045629,306.6325435748439,522.83251953125,6.668879
RuTcTi2,0.152,dft,jarvis_alex,,0.3029052372632718,283.8594309858424,451.6410827636719,2.597422
CuReRh6,0.848,dft,jarvis_alex,,0.3888766932229555,235.0274322836785,414.3061218261719,7.2777724
Cr2MnV3,0.231,dft,jarvis_alex,,0.3120178797224249,326.5610421346697,559.4136352539062,3.9531765
LiNiRuV,0.003,dft,jarvis_alex,,0.2294245285494279,258.5507085396998,425.2941284179688,1.7777281
HRu3V,12.425,dft,jarvis_alex,,0.8629629093019991,216.21205744019173,496.2695007324219,6.150601
AlCoLiSi,0.097,dft,jarvis_alex,,0.2874361103759255,308.56888160572663,603.0577392578125,0.8771644
Mo2V,0.054,dft,jarvis_alex,,0.2742234019061409,296.3952209413272,446.3319396972656,1.2585418
MgNbRu2,0.176,dft,jarvis_alex,,0.3152811418522129,227.02921627247787,396.2585754394531,3.7844555
BNi2,0.0,dft,jarvis_alex,,0.1737118986222567,285.83844309590603,583.462646484375,1.491654
Nb6Os2,2.036,dft,jarvis_alex,,0.4659224129116682,221.0069656165693,368.3598937988281,5.102418
Pt2Ru2,1.75,dft,jarvis_alex,,0.4484016535271724,226.59503998194072,379.2329406738281,3.8823788
AlTi,1.211,dft,jarvis_alex,,0.4109100163251238,244.2096402248383,560.857177734375,1.9379352
AlHNi3,0.0,dft,jarvis_alex,,0.0903935983157987,309.5028019900257,424.0028381347656,0.49913082
CrTi2Zn,7.369,dft,jarvis_alex,,0.6759448549319347,223.2843468415852,441.5303039550781,4.030219
CGaSc2Y,0.008,dft,jarvis_alex,,0.2454692389958223,186.8061423956241,495.3171081542969,1.1744937
Al2BCaRu2,0.096,dft,jarvis_alex,,0.2925399956341235,254.96164642470723,490.2902526855469,3.3321297
Tc2Zn,0.865,dft,jarvis_alex,,0.3980288873520077,208.5623516900609,408.6374206542969,1.1744177
La3Tl,10.186,dft,jarvis_alex,,2.5037357839523144,48.07492576973969,124.96598052978516,6.1356297
InRu2Zr,0.195,dft,jarvis_alex,,0.3259431794448041,189.01611168667307,375.3559265136719,4.8127923
Hf2RhRu,1.028,dft,jarvis_alex,,0.4267351045730282,169.93996309726808,276.1649475097656,2.356711
MgPd3,0.002,dft,jarvis_alex,,0.2291898796169869,168.24616668345396,281.0350646972656,1.2723745
GeRuTcV,0.956,dft,jarvis_alex,,0.3946086252529433,242.71928220241665,440.2480163574219,1.7579944
HfMgRhRu,0.0,dft,jarvis_alex,,0.2081855411565374,193.62981259766008,353.9134216308594,1.57324
CHY2,0.089,dft,jarvis_alex,,0.2845628432481221,314.7474172099017,447.6972961425781,2.2991524
HNbRh3,0.043,dft,jarvis_alex,,0.2735986743610729,239.6402331245488,437.1091003417969,3.7053838
PdSc2Tc,1.714,dft,jarvis_alex,,0.4663058528350817,185.21169610412943,338.70281982421875,3.9977708
Ag2MgY,0.933,dft,jarvis_alex,,0.4794164345451269,89.09460157456314,180.8668212890625,3.1507497
CrIrLiRu,0.51,dft,jarvis_alex,,0.3555832932215102,252.75216579131325,408.3450622558594,2.4357588
NbRu2Zn,0.226,dft,jarvis_alex,,0.3285527053649233,204.97142987877484,403.1922607421875,3.038148
InNi2Ti,0.375,dft,jarvis_alex,,0.3592729047744212,173.15181608783212,328.8822326660156,2.8347726
AuBe2Ru,0.031,dft,jarvis_alex,,0.2625762144667377,289.32138975671614,406.8872375488281,1.5459948
H2MoRh,6.128,dft,jarvis_alex,,0.5635206455662176,316.9421961865349,472.7756042480469,1.1591125
Al3Co2Os,0.001,dft,jarvis_alex,,0.2206991877327649,221.74952693773045,544.91943359375,3.3038669
LiNi2Zn,0.004,dft,jarvis_alex,,0.2361328251306336,206.9910985793706,385.1951293945313,2.4531035
MgRh2Ti,0.0,dft,jarvis_alex,,0.2059032409132849,168.0239786295742,428.8702697753906,0.9724791
Be5Co2Ni,0.024,dft,jarvis_alex,,0.2536323668690191,358.3364049905156,675.1722412109375,1.9013752
GaRh2Zn,0.0,dft,jarvis_alex,,0.1068721251015996,198.86948360951945,363.5011901855469,1.6374822
LiNiPtZn,0.0,dft,jarvis_alex,,0.1364366352026707,131.87774132150378,302.9277648925781,2.5785282
C3NTi4,0.271,dft,jarvis_alex,,0.3008326741722241,540.9164642067108,840.5195922851562,1.1447103
Al3Tc,0.001,dft,jarvis_alex,,0.2151768704643021,287.7605496069338,597.3770141601562,0.8747325
PtRhV2,2.826,dft,jarvis_alex,,0.4941325372089661,238.71647450255176,419.59130859375,3.8959944
AlSc2Zr,1.742,dft,jarvis_alex,,0.4560022051340345,208.5022563522432,397.9770202636719,5.015043
H2V2,5.651,dft,jarvis_alex,,0.5668623712874761,286.5724170895453,697.3504638671875,1.6742742
BiNSr3,0.0,dft,jarvis_alex,,0.0694759788336287,130.54742564874513,270.3423156738281,0.0
Ag2LiZn,0.052,dft,jarvis_alex,,0.2914457911521734,142.68628545817745,249.6359100341797,1.2525632
C2P2Ti4,2.214,dft,jarvis_alex,,0.4129934477265908,434.5749965589486,773.6478271484375,4.49139
Zr2,6.869,dft,jarvis_alex,,0.7776358765941399,149.03687213343352,253.64149475097656,1.5618068
PtReTi2,1.96,dft,jarvis_alex,,0.5537168783763401,107.61895562068923,335.2751159667969,2.4949796
CoMoNi2,0.162,dft,jarvis_alex,,0.3060618575936784,273.52891869705365,482.6427001953125,4.163871
CuGaSr,0.575,dft,jarvis_alex,,0.4029952615587466,129.21566122539562,284.13336181640625,1.8220714
CMgSbY2,0.607,dft,jarvis_alex,,0.3920376966334697,159.65675990691986,377.8751831054688,1.6512806
ReTa2Tc,0.0,dft,jarvis_alex,,0.1768174269552451,235.96947975165912,352.43487548828125,0.96899736
Pt2Re,0.996,dft,jarvis_alex,,0.4160586644396959,188.10862734871463,331.43182373046875,2.2438555
PtRh2Ru2,1.088,dft,jarvis_alex,,0.4064290208594241,233.40688065094068,420.864990234375,5.9114914
GaGeLi4,1.321,dft,jarvis_alex,,0.4320260827530455,204.49986757281133,418.8752136230469,1.4792752
Ru2ScSi,1.422,dft,jarvis_alex,,0.4296992436637351,226.66906396265952,490.8984680175781,3.8775432
NiPt2Ti,0.003,dft,jarvis_alex,,0.2290100048387129,205.84362743692395,345.4974670410156,2.519967
Be2P2Sc,0.028,dft,jarvis_alex,,0.257295447760093,341.48846509115697,700.5540771484375,2.1626804
C2Ga2V4,0.008,dft,jarvis_alex,,0.236762016530752,378.9398723011898,567.385009765625,5.2935104
HfRhRuZn,0.125,dft,jarvis_alex,,0.3114437955273524,179.51436146192762,334.3042297363281,2.4740202
Cr2GaV3,1.848,dft,jarvis_alex,,0.4358025369843015,274.4148987455835,495.2658386230469,3.4207249
Mn4TiW,17.373,dft,jarvis_alex,,1.006236165413058,232.32982943091315,458.0877990722656,10.878301
Ca2CoH6Rh,0.0,dft,jarvis_alex,,0.1468024408246561,783.7261402715224,508.9150085449219,2.1379552
Al3V5,2.652,dft,jarvis_alex,,0.4919434969113418,227.76624654985253,570.9096069335938,6.646265
GaNbOsTc,0.084,dft,jarvis_alex,,0.2952766091609961,202.2110039735592,380.0422058105469,2.677414
AlNScY2,0.008,dft,jarvis_alex,,0.2426091144287614,244.7026952595343,447.9812316894531,2.4727702
OsPdRh6,0.684,dft,jarvis_alex,,0.373649542544882,243.18910818161072,418.3355407714844,7.182114
MgScZr,0.1,dft,jarvis_alex,,0.3012462221936616,196.2972337033717,323.3211975097656,2.952777
CGeTa2,0.952,dft,jarvis_alex,,0.3958282233076924,236.6493930506472,434.5046081542969,1.5899092
AlOsTcV,0.677,dft,jarvis_alex,,0.3716402312588112,249.0915694871904,452.0978088378906,2.179884
AlMoNb6,4.448,dft,jarvis_alex,,0.5761792720471062,215.0178832549367,257.6713562011719,6.991134
Al5FeTi,0.005,dft,jarvis_alex,,0.2323266195814613,309.3007989916267,531.6971435546875,2.8755383
GeNbOs,6.533,dft,jarvis_alex,,0.7218764181307499,168.09339420608245,353.7381591796875,1.2909015
Os2Rh2,0.641,dft,jarvis_alex,,0.3711846960738649,237.6820957685816,444.4657287597656,3.830951
BeCo2Re,0.002,dft,jarvis_alex,,0.2246307551535857,269.4235475417872,565.9630737304688,2.6798038
Al2CoHOs,0.0,dft,jarvis_alex,,0.1610197333628588,336.01089963529887,459.4488830566406,2.6727624
SnTi6Zn,2.508,dft,jarvis_alex,,0.4795095695768279,240.08002737024864,370.0909118652344,8.5010195
C4Sc4Tc2,0.282,dft,jarvis_alex,,0.3095572440329256,428.96116272236816,702.7457275390625,3.1161263
CrP,0.024,dft,jarvis_alex,,0.2532941227799419,367.9275437288208,643.079833984375,1.045148
BeCoRuSi,0.0,dft,jarvis_alex,,0.1814749353107283,304.7826863285302,615.228759765625,2.1541758
AlNi2Zr,4.415,dft,jarvis_alex,,0.7426711220210185,105.67183162049132,318.2934875488281,3.6418135
AgO2Sr,0.026,dft,jarvis_alex,,0.2549000342159662,369.4830058982409,325.4171447753906,1.2130855
AlLiPdZr,0.0,dft,jarvis_alex,,0.0273823334780572,239.5957494190365,288.69439697265625,-0.0557075
CdCrRh2,9.012,dft,jarvis_alex,,0.8546582991036717,160.39895322702762,369.9420166015625,2.8086178
CuRh5,0.254,dft,jarvis_alex,,0.3249353141421491,251.77284194202613,435.2153015136719,8.939949
Be4Ni2,0.042,dft,jarvis_alex,,0.2625114476510483,399.0647268100025,778.7445068359375,4.7138915
AsLi2OSc,0.0,dft,jarvis_alex,,0.1867192463736117,174.26054952729683,506.8655090332031,0.5961207
Mo2NiOs,1.808,dft,jarvis_alex,,0.4524921551096553,224.25574382240765,421.6205139160156,2.0058057
GaPdRhZn,0.025,dft,jarvis_alex,,0.2711732673837064,154.28738174482424,360.1642761230469,3.2106009
InLiNi2,0.0,dft,jarvis_alex,,0.2132072177646249,166.57164476229528,324.3813781738281,2.708438
ScTiZn6,0.361,dft,jarvis_alex,,0.357255760723913,172.8455448173925,282.3550720214844,3.5690346
Be4MgPd,0.0,dft,jarvis_alex,,0.1439864348118155,462.1252221583362,696.4112548828125,1.0563761
NbPt2Zn,0.039,dft,jarvis_alex,,0.2757226843379567,197.7546758137731,315.7662658691406,1.5539284
CoNaS2,0.0,dft,jarvis_alex,,0.1451086991466898,320.0948429069354,381.3138122558594,-0.1071289
RhTaTi2,2.841,dft,jarvis_alex,,0.5427396250128753,167.6548911344841,347.1846923828125,4.0670505
MoNbTiW,4.521,dft,jarvis_alex,,0.5730876249041759,222.23043619697813,356.1154479980469,5.4697065
B6La,0.001,dft,jarvis_alex,,0.2086155657270953,351.52909552247104,780.074462890625,2.3031092
AlInTi2,0.135,dft,jarvis_alex,,0.3051943359725082,234.1933461382023,437.2151184082031,3.9219742
AlMgRh2,0.0,dft,jarvis_alex,,0.1048089230422973,240.574120621692,454.7681579589844,1.3447587
NbTc2Ti,0.131,dft,jarvis_alex,,0.2991946290585067,275.1340512765033,439.2939758300781,2.8341486
Al6CoLa,0.015,dft,jarvis_alex,,0.2547072508473958,218.91693618191235,373.0372314453125,4.8310423
RhRuZr2,3.726,dft,jarvis_alex,,0.6011923983951103,157.48958165006087,329.0489196777344,3.576042
AlTiZn,0.004,dft,jarvis_alex,,0.2331302010976295,253.5943245560118,428.9977722167969,1.8813924
CaTl2Y,0.731,dft,jarvis_alex,,0.4483234338151361,94.4923491576676,201.2227020263672,3.1342583
Mo2NbV,0.606,dft,jarvis_alex,,0.3622476965383582,264.46651181898955,390.0262756347656,2.2472732
PtV,1.199,dft,jarvis_alex,,0.4132826764796327,234.46599793010225,422.760498046875,1.598551
MnRuSiTa,0.0,dft,jarvis_alex,,0.0978257160554096,285.5064693893099,432.5662231445313,0.75191736
CuNi2Re,0.003,dft,jarvis_alex,,0.2283102748504334,227.08560619888928,398.10064697265625,2.7944357
LiRuScY,0.135,dft,jarvis_alex,,0.3134851240010772,183.35274000876623,292.4237976074219,3.3169723
O6ReTc,0.0,dft,jarvis_alex,,0.185378901019198,567.0389956636849,602.2923583984375,3.1789467
AlBeZr,0.849,dft,jarvis_alex,,0.3921195139998789,223.1715677099876,592.9517211914062,0.8669053
Ga2Ti3Zn,0.81,dft,jarvis_alex,,0.3902640430416849,219.4006449293369,421.8633117675781,5.883183
CuMgPt2,0.0,dft,jarvis_alex,,0.2087576436236591,144.15141768100335,299.482666015625,1.4308361
AlCuPd2,0.0,dft,jarvis_alex,,0.2045085177253195,153.63670046748192,345.7024841308594,1.066248
ScZr,6.008,dft,jarvis_alex,,0.7151483980746086,158.10376532991043,298.3242492675781,3.9918754
Li3Sn,0.531,dft,jarvis_alex,,0.3723277028491271,192.4412976620509,329.7047119140625,1.2370864
Ru2ScTi,0.003,dft,jarvis_alex,,0.2268406957660853,254.23565962863347,450.5987243652344,2.3047845
Fe2GaTa,0.0,dft,jarvis_alex,,0.0591409475990408,296.3522419834078,458.0928039550781,0.2627852
CCdSc2Zr,0.177,dft,jarvis_alex,,0.3159331216101619,223.09581365441773,467.3058471679688,3.5008144
Ru2ScTa,0.0,dft,jarvis_alex,,0.1118673934770794,253.2266989879028,397.2223205566406,0.1122309
PdSnTi2,1.962,dft,jarvis_alex,,0.4843743153892524,179.74389051758206,336.3490905761719,5.2607436
Nb2Ru,11.156,dft,jarvis_alex,,1.0216396102110827,144.9971927302825,363.7715148925781,2.6810272
Os2Re2,2.944,dft,jarvis_alex,,0.5127251727935428,215.20835731731185,437.5953369140625,2.9111288
CoGa2Li,0.645,dft,jarvis_alex,,0.3874761284657892,182.395677149098,375.3669128417969,2.2451544
NiRuSc2,0.0,dft,jarvis_alex,,0.1430942110367367,234.25383563254056,391.7356872558594,1.3556219
AlCu2Li,0.015,dft,jarvis_alex,,0.2540166843557125,216.7330882349512,396.7779846191406,1.2511101
BeCaSi,0.288,dft,jarvis_alex,,0.3184237071066976,339.84513698030395,578.78564453125,1.1776181
In2Pb2,4.76,dft,jarvis_alex,,1.025538099812935,61.36621037580515,136.55886840820312,1.6194468
InRu2Zr,0.016,dft,jarvis_alex,,0.2563829447110195,203.89436568461744,364.2787780761719,3.463642
PtTaTi2,2.097,dft,jarvis_alex,,0.5008834843861737,167.33280161190947,264.28741455078125,2.628255
NbReTaTc,0.0,dft,jarvis_alex,,0.2064664370486442,253.98318456786228,358.3934020996094,1.2794129
Ti2Zn,2.598,dft,jarvis_alex,,0.506653998833255,198.2205139121198,384.0493774414063,2.7505026
GeLiNiZn,0.152,dft,jarvis_alex,,0.3171726365752319,185.6779658087576,345.0375061035156,1.354641
NaRhS2,0.0,dft,jarvis_alex,,0.0568305654866081,259.5431543279499,325.2565002441406,-0.025922
RuTaV,1.753,dft,jarvis_alex,,0.4457874360155207,233.25327892289909,338.9654541015625,2.4305556
Co2HRhTi,0.002,dft,jarvis_alex,,0.2191807587644,313.2094647113599,500.9679565429688,2.2193017