formula,Tc,tc_source,dataset,pressure_gpa,lambda,wlog,debye_temp,dos_ef
NbTaW,2.399,dft,jarvis_alex,,0.5088339102581483,180.10332913423002,314.6699523925781,3.3258758
Nb2NiRh,3.838,dft,jarvis_alex,,0.561710357009671,201.81726148544112,410.1795959472656,3.4626338
CSnTi2,0.13,dft,jarvis_alex,,0.2952799152820503,311.2206987308168,499.8023376464844,2.6588204
AlNb6Rh,11.807,dft,jarvis_alex,,0.9029358081853118,190.46475857829267,379.9975891113281,8.350337
GePdRh,0.0,dft,jarvis_alex,,0.1433134017988788,191.9216461887351,328.5879821777344,0.8521622
SSc2Sn,1.435,dft,jarvis_alex,,0.4822895318601336,133.56066826254732,398.0340576171875,2.164409
BePt2W,0.099,dft,jarvis_alex,,0.3014848203272494,192.76571734067144,357.1612854003906,1.3329568
InMgNiRh,0.0,dft,jarvis_alex,,0.1480677503673354,165.33491100988945,315.2798156738281,2.7076237
ScYZn,2.225,dft,jarvis_alex,,0.5206089653840847,153.1128896105757,305.9792785644531,3.7003977
CrOsTaTi,0.007,dft,jarvis_alex,,0.2390810737603087,271.6469064944733,371.3074645996094,3.153186
Os2Pt2,2.136,dft,jarvis_alex,,0.5068404882412987,162.9838094682327,347.09722900390625,4.935421
Nb2Ni4Sn2,0.357,dft,jarvis_alex,,0.3609024211544605,159.6914963121531,309.576171875,6.228792
CGaTa2,0.402,dft,jarvis_alex,,0.3508093029997111,219.1779257701911,414.131103515625,1.7777284
NbReTa,0.0,dft,jarvis_alex,,0.1843110576007592,231.77917873605304,335.2817077636719,1.6699293
LaS4Y3,2.283,dft,jarvis_alex,,0.502542421308771,179.96232439740092,341.4425354003906,4.981345
Al3BaTc,1.03,dft,jarvis_alex,,0.4545824732262618,124.55889943034354,313.5303649902344,1.4609368
BeCoRuV,0.0,dft,jarvis_alex,,0.1409834250038121,306.0384934951433,473.3109436035156,0.50401807
AlRu2V,0.006,dft,jarvis_alex,,0.2366294258678729,284.06540242767187,496.5690307617188,1.3361372
CoLiSnZn,0.044,dft,jarvis_alex,,0.2821583106027768,173.10411831305188,348.6781921386719,2.4216962
AlNiPtSc,1.053,dft,jarvis_alex,,0.4649227506107925,114.98154651268564,330.33966064453125,3.1266727
HNbRh,1.754,dft,jarvis_alex,,0.4437229919636984,237.79482406075897,426.7325744628906,0.67637676
Al3CuLa,0.0,dft,jarvis_alex,,0.1934788381512545,233.31092554756543,370.7368774414063,2.3633375
HfTc2Zr,1.055,dft,jarvis_alex,,0.4100245750548747,215.62912159095265,320.7848205566406,3.571136
NbTiW,7.337,dft,jarvis_alex,,0.6971765107855954,205.55534440422343,351.5525817871094,4.0840597
Pt2Rh2,0.58,dft,jarvis_alex,,0.3766415674137197,195.498024542584,346.3835754394531,6.340836
GaTi2Zn,0.237,dft,jarvis_alex,,0.3244540455080217,237.66156343898183,419.1802978515625,4.528744
MgOs2P2,0.137,dft,jarvis_alex,,0.306377691529934,229.18347042278268,375.570068359375,1.6834579
Nb4Ta4Ti4,19.277,dft,jarvis_alex,,1.787886381243426,124.14432806326872,274.49298095703125,21.95941
PdRh5,0.435,dft,jarvis_alex,,0.3492194644146442,245.605522289178,423.7448425292969,8.903663
CuTcTi2,0.918,dft,jarvis_alex,,0.4039559431431168,203.55050502771,352.0603942871094,2.9849107
Cr4NbRe,25.541,dft,jarvis_alex,,2.05927105284936,142.32983748239803,413.7312316894531,10.868836
H2Ti2Zn,0.463,dft,jarvis_alex,,0.3504587697742156,254.4881694155243,463.9985961914063,3.3056798
MoNb2Tc,0.125,dft,jarvis_alex,,0.2998964918650168,256.8505331675206,403.8044128417969,2.6647992
Ba2CaSr,0.21,dft,jarvis_alex,,0.3992433810403041,49.76728415398357,124.59505462646484,6.749978
CuMoTi2,2.204,dft,jarvis_alex,,0.4725125308711539,224.6444836955229,393.4691467285156,3.5005853
AlPdRuSc,0.0,dft,jarvis_alex,,0.1101739396351329,262.10695048806934,404.2910461425781,1.1436116
GaLiOsW,0.0,dft,jarvis_alex,,0.1125598189567966,215.5033083527005,303.4588928222656,0.6694524
Mg2Sc3Y,1.747,dft,jarvis_alex,,0.5249990148597892,116.13672679830688,334.1299743652344,7.9244995
AlZn2Zr,0.006,dft,jarvis_alex,,0.2397828218921793,213.142854811174,383.7148742675781,1.6577905
CdCo2Zr3,7.652,dft,jarvis_alex,,0.8496040707623226,137.90980360504798,279.1172180175781,7.4239354
Be4MoTi,3.116,dft,jarvis_alex,,0.4555093361138075,374.0795157656793,754.1165161132812,5.56446
AlBe4Cu,0.026,dft,jarvis_alex,,0.2504967621201885,481.6424558787013,800.7005004882812,0.6653028
CrNb2Ru,0.534,dft,jarvis_alex,,0.356436564726423,260.6566355606568,353.7226257324219,2.11428
AuNbRu2,0.187,dft,jarvis_alex,,0.318797034395781,218.82458765593103,350.1297912597656,2.404891
CrH2Ta2,0.166,dft,jarvis_alex,,0.3141981015221443,220.45475552168503,338.6794128417969,0.53203064
AuHfRh2,0.0,dft,jarvis_alex,,0.2127540746341585,185.4268964809219,296.202880859375,3.8683407
Al2C2Cr4,0.049,dft,jarvis_alex,,0.2638826938899867,433.7427339849164,739.585693359375,6.7247987
BeNbRu2,0.602,dft,jarvis_alex,,0.3674016978065926,238.6148179866733,393.8442993164063,3.6276698
InTcZr2,0.126,dft,jarvis_alex,,0.3100343204625076,188.59223792896083,301.1942749023437,1.4810971
AgMg2Rh,0.0,dft,jarvis_alex,,0.1477989824013599,172.1986629427378,269.1507873535156,1.4605972
RuSc2Y,2.864,dft,jarvis_alex,,0.5960710808256289,123.87461625803525,341.26007080078125,3.3186426
Nb4Ru2,1.377,dft,jarvis_alex,,0.4235546053669569,236.6607231407942,371.7666015625,1.6587155
MoW3,0.468,dft,jarvis_alex,,0.355368090884575,233.03136280880085,371.4354553222656,1.242908
Ge2LiPd,1.636,dft,jarvis_alex,,0.4905997644724941,141.9395673100043,284.1278076171875,1.0845178
Be2Pd2,0.015,dft,jarvis_alex,,0.2493939224806268,296.66152340146726,431.9989318847656,1.8219336
Co2OsV,1.898,dft,jarvis_alex,,0.4412180756757606,265.4797956786284,480.2930603027344,4.0862703
HRu3W,0.787,dft,jarvis_alex,,0.3778850688402109,259.4576622659337,461.5260620117188,2.1346126
HfLi2Rh3,0.001,dft,jarvis_alex,,0.2175228068394934,168.85222935030245,324.1022644042969,3.9623625
H2TcTi2,0.148,dft,jarvis_alex,,0.2973385771216592,331.78482306730194,483.8954772949219,1.6471
SnTaTi2,0.838,dft,jarvis_alex,,0.3953633211365728,210.27606804720293,333.3741149902344,3.37711
HNSn2Ti6,5.892,dft,jarvis_alex,,0.6570036918755396,191.76958941339012,380.5578308105469,9.159726
MoNi3,0.081,dft,jarvis_alex,,0.2870159368569091,262.3622080136934,454.2294921875,2.854825
Nb6OsW,5.859,dft,jarvis_alex,,0.6507883196408991,196.7914415662072,366.5007629394531,8.149538
MgPd2Sn,0.428,dft,jarvis_alex,,0.3844042824497276,126.90919505099548,222.76214599609372,2.5152054
Co2LiP2,0.002,dft,jarvis_alex,,0.2213358101218169,349.247862686821,492.7622985839844,2.6551743
GaSc2Zn,0.001,dft,jarvis_alex,,0.2187307313986353,196.9001623005265,361.3685607910156,2.8584769
CZr2,0.117,dft,jarvis_alex,,0.2939974971145919,293.10818775964486,555.119384765625,1.0107436
BiCSc2,0.991,dft,jarvis_alex,,0.4589618384505581,114.6477609992964,366.8489685058594,1.6703559
HgMg3Rh2,0.0,dft,jarvis_alex,,0.1831164490195572,147.06075551370083,303.53277587890625,1.69165
PtZr3,4.126,dft,jarvis_alex,,0.6993590025252496,114.1443967686094,222.0649871826172,3.9368832
CPbScY2,0.002,dft,jarvis_alex,,0.2234270461158926,228.77632201615967,343.7635192871094,2.6489453
InSc3Zn2,0.011,dft,jarvis_alex,,0.2522432636441695,181.73837710179845,329.12811279296875,5.7051964
Mg4Ru2Si2,3.649,dft,jarvis_alex,,0.5641197483852093,188.39001369362308,450.1362915039063,5.3547444
HfSZr,0.132,dft,jarvis_alex,,0.3114342268908391,189.58140022371532,345.65545654296875,0.8248636
AlLa3O,0.654,dft,jarvis_alex,,0.3979341085895334,157.75928569473948,282.4167175292969,2.234477
MoTi3Zn2,1.71,dft,jarvis_alex,,0.4581306740481687,199.9472150493661,426.94915771484375,6.025112
AlBe4Pd,0.176,dft,jarvis_alex,,0.2938150687325712,445.3765453355552,758.2537231445312,2.755849
TaW2,0.003,dft,jarvis_alex,,0.229205514336383,202.4395213019426,335.3150939941406,1.1260923
Al4Ti2Y,1.418,dft,jarvis_alex,,0.4221200866516497,247.73868384804936,496.2057800292969,7.9178324
AlGaNiRu,0.0,dft,jarvis_alex,,0.1854109045941411,210.84792072611137,442.4408264160156,1.1519606
NiSbZn,0.022,dft,jarvis_alex,,0.2658903376593769,179.07612599650685,274.5291748046875,1.7634506
Ca2Si,0.0,dft,jarvis_alex,,0.0970454566946632,250.75139331347785,350.917724609375,-0.2847128
Nb2TaTi,20.106,dft,jarvis_alex,,1.765935811567243,131.7458312146433,279.0324401855469,7.682055
CSc2,0.001,dft,jarvis_alex,,0.2118926546046929,374.9270829252845,592.1542358398438,2.1809902
Nb2RuV,0.654,dft,jarvis_alex,,0.3672034607760402,260.28367993500603,369.6191711425781,2.3263733
PdTaZr2,3.019,dft,jarvis_alex,,0.5778224870672602,144.30300595762736,245.04067993164065,3.0057764
MoNb2Re,0.033,dft,jarvis_alex,,0.2669924998954215,251.56314712010504,371.6192321777344,2.8001988
GaMoRuTc,2.336,dft,jarvis_alex,,0.4861131928777502,211.1925440393117,413.4165954589844,2.6382442
Mo3Re,11.425,dft,jarvis_alex,,0.8394143817455267,212.0016029531898,420.9209899902344,3.5250423
CdLa3O,1.232,dft,jarvis_alex,,0.4804568465425859,116.6258025195158,256.5626525878906,3.5730097
OsTi2Zn,0.017,dft,jarvis_alex,,0.2553781410763038,236.73990646014173,370.3143005371094,1.7397664
Al5FeY,0.002,dft,jarvis_alex,,0.2242243732007983,289.2888477708318,511.7223815917969,2.736813
Cr4NbOs,23.371,dft,jarvis_alex,,1.4997489664306398,181.8804721912977,415.5168762207031,11.023729
CuGaNiRh,0.0,dft,jarvis_alex,,0.1119465911876832,192.33798199776444,345.0126342773437,0.93038684
LaNi2Si2,1.547,dft,jarvis_alex,,0.4505489898987704,195.3724633764961,403.8368225097656,3.3162918
BLuRh3,0.0,dft,jarvis_alex,,0.1867658252401487,204.1820131797741,382.4170837402344,4.293505
InTi2Zn,0.186,dft,jarvis_alex,,0.3182042978391644,220.5892995347079,375.3209533691406,3.91441
NbTc2W,8.364,dft,jarvis_alex,,0.7389118496061794,203.9752196575353,407.0832214355469,2.6291158
Rh7W,0.601,dft,jarvis_alex,,0.3643849628943269,252.17256544776168,458.7200622558594,7.513648
HNNi6Zn2,0.003,dft,jarvis_alex,,0.2298052455316389,224.88702235252848,418.5840148925781,7.896173
NbNi2Zn,0.094,dft,jarvis_alex,,0.2969591108403427,213.7024955617825,407.0551452636719,1.715865
MoRhTiV,0.036,dft,jarvis_alex,,0.266471865867455,278.94204529348855,440.4080810546875,2.2438884
InMgZr2,0.658,dft,jarvis_alex,,0.3941862827763636,167.89728373154506,326.232177734375,3.8258693
CaSiZn,0.431,dft,jarvis_alex,,0.3543743704579515,218.895286489774,402.4918212890625,1.5122623
BeMoNi2,0.009,dft,jarvis_alex,,0.2411269369058948,300.17653130417324,511.0753173828125,3.2481384
OsTa2V,0.001,dft,jarvis_alex,,0.2186806572705307,224.0706342186377,321.9712829589844,3.7820501
Pd4Rh2Ti2,0.014,dft,jarvis_alex,,0.2542541768773613,199.3527908252739,408.9024353027344,8.147646
AlZn,1.49,dft,jarvis_alex,,0.4485877716327247,192.0764137168496,378.8421936035156,0.575022
Al2MgPd2,0.077,dft,jarvis_alex,,0.2901221336049978,223.10468228930807,376.6357116699219,2.1609843
Ni2ReZn,0.168,dft,jarvis_alex,,0.3145128584434898,220.8671371568797,397.4309692382813,2.8006947
Be4GaRh,0.0,dft,jarvis_alex,,0.1694203797526413,389.4417147033302,740.21337890625,0.4551898
Mo3Ti,0.845,dft,jarvis_alex,,0.3814907068228257,263.0126803900982,435.85980224609375,4.173285
AlMg,1.323,dft,jarvis_alex,,0.4196279206691736,238.4362477070229,477.4662780761719,0.8469213
HfInRh2,0.294,dft,jarvis_alex,,0.3635489442530504,124.84186814248837,302.3594665527344,4.5716853
Ni2P2Zr2,2.414,dft,jarvis_alex,,0.4823234740319918,225.30295617076496,469.24615478515625,4.739337
AlPd2,0.0,dft,jarvis_alex,,0.2023267066842387,187.5200690019276,358.9018249511719,1.0485545
Al3Li,1.452,dft,jarvis_alex,,0.4099437149320181,296.8429093036213,509.6977844238281,0.89202935
LiRh2Si,0.0,dft,jarvis_alex,,0.1290613628051552,276.59771260237244,502.4380493164063,1.3624078
Mn2NbV,0.176,dft,jarvis_alex,,0.305706732524744,301.0814645187655,514.1192626953125,1.9815254
Cr2HRh,9.351,dft,jarvis_alex,,0.6910160036848499,266.6003785395601,644.4336547851562,3.8090653
GaHfNi2,4.271,dft,jarvis_alex,,0.7791825738594416,91.63295739141697,260.4453430175781,3.038558
HfMoNb2,7.907,dft,jarvis_alex,,0.7954192389604483,162.9947265280604,310.13690185546875,5.006039
GaNi,1.088,dft,jarvis_alex,,0.4400438228620075,154.0001150060578,309.7993469238281,1.475264
Al2Pd,0.59,dft,jarvis_alex,,0.3745736615765515,205.87048030807267,317.2648010253906,2.6733859
CoNiP,0.0,dft,jarvis_alex,,0.1656394876402332,302.03136669047603,465.7519226074219,1.7822939
HMgPt,0.12,dft,jarvis_alex,,0.2955953644666301,284.59094056662434,333.1403503417969,0.7941465
Ca3OPb,0.0,dft,jarvis_alex,,0.1746256885146448,160.11102856479815,327.4160461425781,0.019453125
Nb2ReV,0.306,dft,jarvis_alex,,0.3302195539084269,266.274906674231,321.31085205078125,2.5985827
InSc2Zn,0.0,dft,jarvis_alex,,0.1945985228718654,172.79042657466923,324.95233154296875,4.156414
BeCrNi2,0.064,dft,jarvis_alex,,0.2764386216032651,317.5225649413258,535.4632568359375,3.3885207
NiRh2Zn,0.045,dft,jarvis_alex,,0.2755725446435551,229.96743842464772,364.9640502929688,3.9243326
AlLu3N,0.005,dft,jarvis_alex,,0.2397723392940085,177.71148224594862,336.1282653808594,1.8383639
CoSnV,0.0,dft,jarvis_alex,,0.0593108228826098,218.1147368894433,379.9997253417969,-0.1090735
AlCr2H2,2.16,dft,jarvis_alex,,0.4645411135812711,236.6366903729236,604.6945190429688,3.3864543
CuNbPd2,0.007,dft,jarvis_alex,,0.2417217160378282,211.4227777740548,370.5490417480469,2.2645469
CoLiNiSi,0.0,dft,jarvis_alex,,0.1252132227385021,312.4713424030698,546.8375244140625,1.6728362
Mo3W,1.425,dft,jarvis_alex,,0.4179705315747891,262.63664818113085,406.3084411621094,2.9174507
AlCInY2,0.535,dft,jarvis_alex,,0.387931632445733,150.01878989177104,398.8451232910156,0.7012943
Be2Ni3Ti,0.432,dft,jarvis_alex,,0.3503211249356774,238.35486401842704,508.4710998535156,2.8077888
NbTa3,10.935,dft,jarvis_alex,,0.9892441853399968,150.24578912089854,257.3550109863281,6.5827107
InLiY,1.617,dft,jarvis_alex,,0.5163366214347979,114.43420479720696,301.9410095214844,1.5642508
Li7Na,0.821,dft,jarvis_alex,,0.4119193648274128,163.0690474762428,325.0790405273437,4.6847005
Al4Ca4,0.113,dft,jarvis_alex,,0.3013731119164147,221.52182261331063,389.1714172363281,4.8002586
MgPdPt2,0.128,dft,jarvis_alex,,0.3175075461681448,155.25062260451537,290.4151306152344,4.6672416
Pd2PtSc,0.001,dft,jarvis_alex,,0.2185011527108306,173.48463929819874,315.6961975097656,5.5028944
Nb6PdRh,9.011,dft,jarvis_alex,,0.7944295083342522,186.9959577121062,386.9581604003906,5.773523
H2InY2,0.051,dft,jarvis_alex,,0.2869926252882089,164.66142575066547,329.6278991699219,1.6760104
P2Ti2,0.424,dft,jarvis_alex,,0.3374830021475242,309.69000501503746,598.8389892578125,2.9140291
Mg2PtRh,0.0,dft,jarvis_alex,,0.141254925350797,175.86150483980092,327.8634948730469,1.9438432
AsNiY,0.18,dft,jarvis_alex,,0.3245865901978911,179.71459868658363,338.888427734375,1.5427562
CoGe2,2.49,dft,jarvis_alex,,0.5056948258023083,191.5959103461745,392.0728454589844,1.5178148
InMgNi4,0.004,dft,jarvis_alex,,0.2339018541039199,204.41702941197744,381.7824096679688,4.5981455
Li2PtSb,2.22,dft,jarvis_alex,,0.5522307044158637,123.09620310260524,253.07460021972656,1.0625185
Mn4MoTc,7.865,dft,jarvis_alex,,0.6362389393613778,281.49615655215035,467.0208129882813,4.017179
Hg2MgSc,0.019,dft,jarvis_alex,,0.2712801527479372,118.6250090201135,177.31959533691406,1.6632127
CMgRh3,0.004,dft,jarvis_alex,,0.234220702723223,211.28340570647904,430.7462463378906,4.3751845
AlCdSc,0.922,dft,jarvis_alex,,0.4272638429859202,151.00245563123303,345.25177001953125,1.8118182
ReRuTaTi,0.0,dft,jarvis_alex,,0.150733241430766,265.13863088422914,366.0146179199219,1.8481197
Cu4PdSc,0.002,dft,jarvis_alex,,0.2262686835149583,203.02840612491457,329.7011413574219,5.2193866
HfOs2Sc,0.002,dft,jarvis_alex,,0.2260823948632724,204.6476648213921,329.3193359375,2.7239213
AuMg2Pt,0.042,dft,jarvis_alex,,0.2969349665714257,94.76186334315368,235.7219390869141,1.3204824
InSc2Tl,0.15,dft,jarvis_alex,,0.3334787536254905,120.4631056711254,229.99449157714844,2.8507571
Al3FeNi2,0.001,dft,jarvis_alex,,0.2107878113650825,268.86390194523824,556.4564819335938,2.5164092
NiV,1.334,dft,jarvis_alex,,0.4068614483135744,284.446919459454,491.634033203125,1.175956
HMoRu3,3.386,dft,jarvis_alex,,0.5114587596670866,248.88896329026608,481.9449157714844,2.9930522
BeCo2Cr,1.809,dft,jarvis_alex,,0.4341783972835802,273.70236429189947,618.0813598632812,3.6110473
NiRu2V,2.942,dft,jarvis_alex,,0.4916253890779926,254.03864892835009,474.3979187011719,3.799734
PdRhScZn,0.0,dft,jarvis_alex,,0.1727197257690401,179.85000769382722,334.5920715332031,2.0361764
BeOsRu,1.204,dft,jarvis_alex,,0.4016191795445212,275.7449537568501,487.7614440917969,1.8770837
BBeHf,0.699,dft,jarvis_alex,,0.351130942444291,378.88078843145337,642.3567504882812,1.229063
HgPSc2,0.073,dft,jarvis_alex,,0.3057802261724429,124.468943119835,333.5980529785156,1.8708997
MoNbRuV,0.316,dft,jarvis_alex,,0.3302021627338461,275.1363626115124,419.7964782714844,1.569472
HfOsTcZr,0.014,dft,jarvis_alex,,0.2529179033310099,220.17093990689887,326.8315124511719,1.5835037
LiPdRhSc,0.0,dft,jarvis_alex,,0.1461157786522531,182.83546894057545,324.9436340332031,1.4419967
Mn2TiW,0.001,dft,jarvis_alex,,0.2128423438845259,301.19607149099704,452.4548034667969,1.5151553
AlPbTi6,5.37,dft,jarvis_alex,,0.6184373511857473,208.1944017360028,354.57232666015625,5.8215003
NiPdZn2,0.0,dft,jarvis_alex,,0.1414866538068726,182.70664522344563,330.8441772460937,0.57165116
As2HfTi,0.0,dft,jarvis_alex,,0.1795894793588399,211.06504070886143,359.4035949707031,0.8469003
Cl2NTi2,0.125,dft,jarvis_alex,,0.2926629430940599,329.4202259159158,365.2516479492188,2.4495318
BaCuSi3,0.261,dft,jarvis_alex,,0.3270410927558369,245.16812557953972,369.5309753417969,1.321065
Al2MgSc3,0.034,dft,jarvis_alex,,0.2707078096571237,214.9537046110093,431.2445373535156,3.2505555
Al3Mg,0.844,dft,jarvis_alex,,0.3779008494746487,278.7034947491671,404.8889465332031,1.6018044
Ag2MgSc,0.056,dft,jarvis_alex,,0.2949059241760035,136.87051578468012,273.17779541015625,2.8089042
Rh2ScTl,0.0,dft,jarvis_alex,,0.0848039052399717,182.8598424678481,323.8941955566406,0.7604366
LiRh7,3.098,dft,jarvis_alex,,0.5183355518682287,217.2734041839009,413.1615905761719,9.527684
AlNb6W,4.361,dft,jarvis_alex,,0.5740399564429197,213.37461262277867,290.0256652832031,6.8893485
OsRhZr2,2.353,dft,jarvis_alex,,0.5254557926440641,156.55014181833474,312.0914306640625,2.7265055
HMgPtRh2,1.644,dft,jarvis_alex,,0.4411088635532086,229.5127536749638,364.9650268554688,3.530712
CCr2Ga,0.186,dft,jarvis_alex,,0.2994313805080698,388.0827917694349,603.9741821289062,2.5281188
HfMo3Ta2,2.973,dft,jarvis_alex,,0.530560989573364,190.7814314463929,336.1050720214844,6.5759745
Be4CuPd,0.094,dft,jarvis_alex,,0.2802582044585354,398.53247615146734,712.486083984375,2.4813852
AgAl3Pd2,0.451,dft,jarvis_alex,,0.3757733823274231,154.13736256504163,338.5179138183594,0.5417383
Cr6Ru2,24.705,dft,jarvis_alex,,1.5068291671722354,192.96715766294665,481.0511474609375,13.37916
Al3Lu,0.01,dft,jarvis_alex,,0.2440037157143544,260.83747722183887,398.6312561035156,1.692718
AgSc2Tc,0.502,dft,jarvis_alex,,0.3695947728671801,191.27431397819413,324.4626770019531,2.782462
Cr2N2V2,12.043,dft,jarvis_alex,,0.9729050444650126,167.77830360729132,737.7899169921875,3.0575616
CuNi2Si4,0.146,dft,jarvis_alex,,0.3048415329486329,256.2895622200584,436.5848083496094,1.8741844
CrRh2,4.631,dft,jarvis_alex,,0.5468233179940689,267.31157178067986,454.0290222167969,2.9369128
ReRhZr2,0.0,dft,jarvis_alex,,0.2117653324861287,205.90582004869933,303.4801330566406,1.2326088
Os2ScTi,0.05,dft,jarvis_alex,,0.279010161327693,223.65021553048652,376.3592224121094,3.0860324
Rh2Sc4,3.788,dft,jarvis_alex,,0.62494084520286,142.17591904762287,228.71910095214844,6.354577
LiPtRuTa,0.0,dft,jarvis_alex,,0.1178632755855247,192.4939126169168,296.6214904785156,1.7069731
Be2NiPt,0.005,dft,jarvis_alex,,0.2323563677089496,286.6691270567697,376.2721252441406,1.2530998
CMgOsY2,0.014,dft,jarvis_alex,,0.261800173056543,137.0829441712767,329.98223876953125,2.2215974
Al3BaZn,0.314,dft,jarvis_alex,,0.3483417705892886,180.5777030733356,320.3921813964844,1.3932511
GaHRu,1.272,dft,jarvis_alex,,0.4271102370373755,208.54037751876768,407.4273376464844,1.6312137
Mo4ScY,3.869,dft,jarvis_alex,,0.5839620057796095,178.90239742896043,354.37994384765625,6.3907022
MoNb2Os,0.056,dft,jarvis_alex,,0.2777753103899193,261.16978338375765,384.5959167480469,0.9015705
AlLi2,0.196,dft,jarvis_alex,,0.3074479953730308,317.7750689885515,558.6571655273438,0.7981395