formula,Tc,tc_source,dataset,pressure_gpa,lambda,wlog,debye_temp,dos_ef
CrHRh2,1.249,dft,jarvis_alex,,0.3973694100600253,303.71958663551874,454.8721923828125,2.192261
PdRh6Tc,1.433,dft,jarvis_alex,,0.424318740003723,244.1084522309665,444.3462524414063,6.958712
TiZn2Zr,0.147,dft,jarvis_alex,,0.324942334755767,145.58945893914952,353.109130859375,1.4782038
C2Sn2Ti4,0.016,dft,jarvis_alex,,0.2480972435189533,343.5484668329894,513.1192626953125,3.0523586
Ge2Ni2Rh2,0.789,dft,jarvis_alex,,0.433352875783944,120.21373590125852,374.0772705078125,5.882931
Hf2LiOs,0.045,dft,jarvis_alex,,0.2848909227228799,158.93608047603783,257.9692687988281,1.5451232
NPbSc2,0.001,dft,jarvis_alex,,0.2189340344983002,278.6217610103916,330.9321594238281,1.0136584
Nb2ReTc,0.014,dft,jarvis_alex,,0.2496956046455332,267.0546280526859,363.4742736816406,1.1308328
NbPd2Zn,0.201,dft,jarvis_alex,,0.3242137340509716,203.35297783682373,344.8148803710937,1.5753348
AgTiZr2,1.972,dft,jarvis_alex,,0.4801132637457361,187.65267599688573,293.8960876464844,3.1489851
Al5NiSc,0.004,dft,jarvis_alex,,0.2284842814143726,305.42789954968947,537.3089599609375,2.720544
MoPbTi2,0.302,dft,jarvis_alex,,0.3367880690202562,224.0933999320628,318.6131286621094,2.2419672
HfRh2Zn,0.0,dft,jarvis_alex,,0.1107691518340046,181.1604707308236,309.4095153808594,0.2465339
AlHfSc2,1.406,dft,jarvis_alex,,0.4514164109542418,176.0329763452089,344.8916320800781,3.7147315
CuGaMgSc,0.15,dft,jarvis_alex,,0.3274530193606362,139.50297398479913,362.5812072753906,2.1435797
AlAuZr2,1.786,dft,jarvis_alex,,0.4991218745430223,144.5480317601019,341.0670471191406,2.9464982
C2Ge2Nb4,1.392,dft,jarvis_alex,,0.4030803282934362,312.0088281581346,538.8243408203125,3.514741
Ni2Tc6,0.824,dft,jarvis_alex,,0.3775091994238032,274.17406958460657,517.529052734375,5.266514
CMgSbSc2,0.051,dft,jarvis_alex,,0.2754055349122151,265.60154618142764,487.3725891113281,1.7055414
Al2OsRu,0.364,dft,jarvis_alex,,0.3499445359399307,202.43906440030267,448.31243896484375,3.5131898
GaLi2,4.337,dft,jarvis_alex,,0.6721647129138278,132.5730999334614,349.6652526855469,0.51150227
Ta2TcV,0.272,dft,jarvis_alex,,0.3303987475068453,235.2730885690463,336.7855529785156,2.6219726
Al2GaTi,0.0,dft,jarvis_alex,,0.1847374901334676,297.7573972346862,549.260009765625,1.9318587
Be4PtSc,19.048,dft,jarvis_alex,,1.0530201430820103,233.29186744101,620.963134765625,2.3652754
CaLi4Mg,0.334,dft,jarvis_alex,,0.344880156693957,206.3419672282812,362.7761535644531,4.484771
HRh2V2,5.146,dft,jarvis_alex,,0.5946967253876019,223.71702578286465,459.343017578125,3.6518362
Mn4ReTi,13.652,dft,jarvis_alex,,0.8483965409660138,247.4284104168049,447.4048156738281,8.007875
GaHRh3,3.403,dft,jarvis_alex,,0.6288218754176994,125.12300530465096,405.7810668945313,3.7178571
Cu4PdTa,0.204,dft,jarvis_alex,,0.3326576172240184,166.77872821654276,298.8823547363281,4.3909316
GaTaTi2,5.139,dft,jarvis_alex,,0.6485007268815678,173.79462437794143,339.7182312011719,4.9730268
AlRhSc2,0.163,dft,jarvis_alex,,0.3271822667110409,152.1475120459163,370.9618835449219,1.7811235
B6Ba,0.0,dft,jarvis_alex,,0.1739780822240774,516.962349000626,763.6690063476562,0.7405784
AlInSc2,0.048,dft,jarvis_alex,,0.2803441171665338,203.8926292285961,359.3332214355469,2.6528707
GaNb6Sb,15.605,dft,jarvis_alex,,1.1650212967634572,167.580974035098,307.8030700683594,14.160036
LiOPdY2,1.061,dft,jarvis_alex,,0.4273123478903035,173.55161886330396,361.3854064941406,3.3065333
CoH3Li,2.924,dft,jarvis_alex,,0.4536174898708104,357.1047408847182,677.5813598632812,0.69924694
BeSiY,0.05,dft,jarvis_alex,,0.2684586158665784,350.6451058886656,544.0538940429688,1.334038
Al2NiRh,0.252,dft,jarvis_alex,,0.3433845848430539,160.86268748213928,491.3833923339844,2.3250926
MgOs2Ta,0.135,dft,jarvis_alex,,0.3140691564094804,179.91102867293154,329.4798889160156,3.4505746
MgRhRuTa,0.0,dft,jarvis_alex,,0.0811267697554536,231.6108139689684,369.3854675292969,0.8203555
Ru2ScV,0.0,dft,jarvis_alex,,0.1707578210020842,278.5601558371882,440.4678039550781,1.3054061
LuRu2Zr,0.0,dft,jarvis_alex,,0.1602248364268039,202.6589521100943,322.96368408203125,2.3989697
C2Hf2,0.0,dft,jarvis_alex,,0.1689942047917946,360.5587579459553,529.396484375,0.7306647
C2P2Zr4,2.882,dft,jarvis_alex,,0.4564911247695128,342.5311254347652,586.899169921875,4.791666
HfN2Sc,1.955,dft,jarvis_alex,,0.404269464470309,431.27231892104527,619.4775390625,1.0845578
O2Sc6,1.588,dft,jarvis_alex,,0.4211275393746888,280.9172963502863,444.5071716308594,9.483064
PdZnZr,2.822,dft,jarvis_alex,,0.5524351493410528,156.89777508296436,307.1189270019531,2.1986675
AuBe4Li,0.0,dft,jarvis_alex,,0.1536692917202273,439.80448169368674,574.6192626953125,0.61950344
AlRh2Sc,0.0,dft,jarvis_alex,,0.0744595937705274,286.0788946730086,458.0655212402344,0.41777202
InNTi3,5.79,dft,jarvis_alex,,0.6235600419681886,218.34924823019608,420.1801452636719,3.0973346
Al2Li2Tc2,4.575,dft,jarvis_alex,,0.5668124601728829,232.86836541629503,507.1081848144531,3.3738344
AlRuV,0.051,dft,jarvis_alex,,0.2709282129901521,320.97684605350656,498.4127807617188,1.432987
Al6MoTi,0.986,dft,jarvis_alex,,0.4066594892921988,210.59430734215587,626.2063598632812,2.313486
CoOsTaZn,0.0,dft,jarvis_alex,,0.1064820854056746,200.0083958786393,326.572265625,1.2013607
Be4ReV,0.003,dft,jarvis_alex,,0.2215848823884401,399.9977185680429,711.73583984375,2.1135018
AsCu2S4,0.523,dft,jarvis_alex,,0.4098744963439688,106.79230486339904,292.85498046875,7.481147
Cu6LiPd,0.0,dft,jarvis_alex,,0.1352315528079519,209.4361195041301,316.7129211425781,2.6967955
In2Ti4,2.98,dft,jarvis_alex,,0.5417848444615825,177.22809517142176,387.2571105957031,10.555792
ReV2W,0.003,dft,jarvis_alex,,0.2281511154970374,282.5927983049445,414.7403259277344,2.6499557
HfRu2Y,0.0,dft,jarvis_alex,,0.1773604770282996,194.03191402360207,307.5601501464844,2.3043475
C2Ga2Ti4,0.0,dft,jarvis_alex,,0.2081440516037962,314.62532059243154,616.0020141601562,2.7846248
Nb6Sn2,15.257,dft,jarvis_alex,,1.3740728588739577,130.93065546456086,261.47607421875,15.179864
OsRh5,1.239,dft,jarvis_alex,,0.414245850249713,239.4108188252613,422.8454895019531,8.2379265
NbOsV2,0.103,dft,jarvis_alex,,0.2911359470768428,286.946679803104,425.9590759277344,2.443
CrRh7,1.399,dft,jarvis_alex,,0.4178075570236966,258.3880743507161,494.3768005371094,10.342748
N2YZr,2.595,dft,jarvis_alex,,0.4264400322880324,429.8673831423626,636.0115966796875,1.1808002
CoHf2Re,0.009,dft,jarvis_alex,,0.2480043658667565,191.96189841261727,285.51226806640625,2.0423248
NbReTa2,0.835,dft,jarvis_alex,,0.3992605820144986,197.8454792066412,329.1019592285156,3.4282174
CIrV2,3.145,dft,jarvis_alex,,0.5325616664316516,198.25483646239977,555.421875,3.091843
BaRhSi3,1.733,dft,jarvis_alex,,0.4381611717997117,250.4730952178316,353.1588439941406,2.058632
HRhV,1.748,dft,jarvis_alex,,0.4248035889795399,294.81351208053303,492.5182800292969,1.1460795
Ni4Sb2Ti2,0.247,dft,jarvis_alex,,0.3407258834218935,167.6701646367189,332.0663757324219,7.38738
Mo4W2,1.293,dft,jarvis_alex,,0.4149525250623839,247.62023533039127,399.0720520019531,3.6291306
PSeZr2,2.663,dft,jarvis_alex,,0.4957933585123751,221.62818896173715,389.4408874511719,2.3676198
HgNZr2,0.268,dft,jarvis_alex,,0.3321553055582839,221.30183746522616,363.308349609375,2.3699834
OsPtW2,0.939,dft,jarvis_alex,,0.4122108436293061,186.35554618239843,374.0870971679688,1.3656267
CsSi6,0.953,dft,jarvis_alex,,0.4023833050636938,215.62299187539028,364.7937316894531,1.8418698
Os2ZnZr3,0.0,dft,jarvis_alex,,0.1930752093351702,202.61047960324643,333.3641052246094,1.34657
Al3CaMg,0.001,dft,jarvis_alex,,0.2136563919937451,230.9977889050181,391.8425598144531,1.4646833
B4C4Ca2,0.004,dft,jarvis_alex,,0.220040578888685,634.4284149871728,865.3805541992188,0.897611
CoPY,3.746,dft,jarvis_alex,,0.5523122762393666,208.219552403114,414.1543273925781,3.3855858
Be2CuPt,3.185,dft,jarvis_alex,,0.560085679688159,168.12106326445698,376.7997741699219,1.3646939
Al3CoOs2,0.127,dft,jarvis_alex,,0.3095658772583584,193.32836521677785,467.66351318359375,5.051177
HNbTi2Zn,6.265,dft,jarvis_alex,,0.6400644482884174,219.3798265306544,396.90960693359375,4.156895
N3Zr4,5.049,dft,jarvis_alex,,0.5366234101754086,310.0554344474632,589.5804443359375,4.816681
H2Pd2,1.235,dft,jarvis_alex,,0.4341567048687297,186.64906106053664,289.14990234375,1.0577123
Rh3ScZn2,0.0,dft,jarvis_alex,,0.1709250574738272,188.6564262846584,371.2903137207031,2.412248
Ga2LiPt,0.781,dft,jarvis_alex,,0.4191125664304254,141.33644759979654,225.99365234375,1.0234
HRh3Sc,1.29,dft,jarvis_alex,,0.4097322954954764,263.800164339093,415.1297302246094,4.3558187
CGeMgSc2,0.0,dft,jarvis_alex,,0.1947136374899217,265.07813610063835,531.6343994140625,0.70690507
Ru2WZn,0.0,dft,jarvis_alex,,0.1633391740138643,222.61275660611832,381.4946594238281,0.5510469
RhRu2V,7.104,dft,jarvis_alex,,0.6554662066871989,234.525554951446,479.8459167480469,4.405977
Al2CoCu,0.068,dft,jarvis_alex,,0.2861650972074516,228.96977646203817,503.80029296875,2.1734846
InPtZr6,4.474,dft,jarvis_alex,,0.6647478957157029,141.61834610228692,285.0910339355469,10.983514
Nb2RuV,0.424,dft,jarvis_alex,,0.3446654939065213,263.53377480083867,346.0780639648437,2.1505227
AgLi2Si,0.215,dft,jarvis_alex,,0.3191001723468792,249.1930918468832,376.3138732910156,1.2673448
InLi2,1.301,dft,jarvis_alex,,0.4617420004149558,146.49573734638236,311.0240478515625,1.6156982
Mn4NbRu,10.227,dft,jarvis_alex,,0.7229723833897264,262.51231333617784,455.6340637207031,6.304977
LiPtRhSc,0.0,dft,jarvis_alex,,0.1666771763382618,160.5499996362525,294.240234375,2.0883913
MoTcTiV,2.026,dft,jarvis_alex,,0.446537743006774,267.45399037188514,447.7428283691406,3.2355008
Be3Ti5,4.603,dft,jarvis_alex,,0.5718873666604856,227.0847211848574,587.6541748046875,5.614069
InLiNiTi,0.0,dft,jarvis_alex,,0.050813571859634,265.12877601641685,344.06707763671875,-0.0804068
B2LuRu3,7.327,dft,jarvis_alex,,0.90738101800564,115.48093001742149,452.4015808105469,4.6834197
Al2LiTc,5.199,dft,jarvis_alex,,0.7825394471075752,110.25585681291942,508.1036682128906,2.411088
Al2LiRh3,0.0,dft,jarvis_alex,,0.1916499127624863,225.4864559566512,471.727783203125,2.5643587
Re2TaTi,0.009,dft,jarvis_alex,,0.2444096021025157,235.35166822472408,358.90594482421875,2.7062602
AlMgNi2,0.0,dft,jarvis_alex,,0.1929276102348377,218.74099194211087,484.9258117675781,2.5976489
Os5Ru,2.442,dft,jarvis_alex,,0.4814949230097435,229.9893149802488,479.2453918457031,4.8553576
Cu2Sn2Y2,0.0,dft,jarvis_alex,,0.1139984551821169,178.0261961475004,325.6576232910156,0.7162898
PdTi2,0.306,dft,jarvis_alex,,0.3446660886450566,190.2974234976201,391.6947326660156,1.6851773
CuNi6Ta,0.0,dft,jarvis_alex,,0.156317928665263,236.5867940926568,403.9773559570313,9.412363
AlNi2Zn,0.011,dft,jarvis_alex,,0.2523245619657474,184.3097178215349,414.6269226074219,1.9935794
Be2Mn2,0.307,dft,jarvis_alex,,0.3170728643273454,376.4593481358745,643.28369140625,1.3530403
Al2GaZr,0.008,dft,jarvis_alex,,0.2419293008845367,244.01809357577372,501.1600646972656,1.4936434
B2BaRu2,3.611,dft,jarvis_alex,,0.7407388633257384,86.83901842983876,417.3318481445313,2.6255205
AlMgPt2,0.0,dft,jarvis_alex,,0.1877624977639458,175.78874776988096,316.1616516113281,1.5530717
Ta3W,3.96,dft,jarvis_alex,,0.6021175016479228,166.60151497768695,305.9952697753906,4.6836042
HHfNi2Ru,0.0,dft,jarvis_alex,,0.2061592858833183,271.93951775279413,404.3101501464844,3.9875724
HfMoRhZr,0.12,dft,jarvis_alex,,0.3050571261551814,209.56690028984823,324.6778869628906,3.1768646
CrV2W,1.266,dft,jarvis_alex,,0.4091041321743517,261.5256937895308,437.2602233886719,3.2802522
CRuV2,4.637,dft,jarvis_alex,,0.5550349364603736,252.9204472600992,575.775390625,3.3892996
Be5Hf,0.41,dft,jarvis_alex,,0.330716763220611,350.98888545155967,659.0303344726562,2.57559
MgNiRuSn,0.0,dft,jarvis_alex,,0.1506059191247968,178.98127782466858,376.1087951660156,1.6656661
Nb2TcV,1.562,dft,jarvis_alex,,0.4323457678074336,241.44486195407023,355.5790405273437,4.282514
MoRu2Ti3,1.267,dft,jarvis_alex,,0.4120056219056773,252.1357438627009,474.7752685546875,3.6347136
LiOSc2Si,0.084,dft,jarvis_alex,,0.2843513684930474,299.9737232491805,558.7952880859375,2.1335404
OsRuSc2,1.511,dft,jarvis_alex,,0.4534215028859822,185.46559104041043,381.6895446777344,4.5543437
ReTaTiW,0.542,dft,jarvis_alex,,0.3682863166720306,211.51018763527497,366.9939270019531,2.7900603
Mo2NbW,0.017,dft,jarvis_alex,,0.2529374229082281,262.1107295725181,379.8908996582031,1.9783329
CrReV,0.532,dft,jarvis_alex,,0.3481951796131815,306.8339768668487,440.7032165527344,2.0276096
AlHf3,0.832,dft,jarvis_alex,,0.4175929370086887,153.98906918497016,283.6548156738281,4.233152
AlCHfTi2,0.632,dft,jarvis_alex,,0.3798806774645317,201.63131885105432,486.1301879882813,3.1503043
Be4IrSi,7.612,dft,jarvis_alex,,0.6396164599173223,266.49718165129184,700.0065307617188,1.8220283
Al2NiPt,1.634,dft,jarvis_alex,,0.4950479203016022,136.58225159479557,369.7298889160156,1.8638068
InTcTi2,0.033,dft,jarvis_alex,,0.2670485920224789,252.2056281240436,365.7469482421875,1.5446315
C2Sc4,0.002,dft,jarvis_alex,,0.2203416595356474,335.9360117289735,587.2682495117188,4.651887
Ge2Mg4Ru2,1.686,dft,jarvis_alex,,0.479823958222313,160.57473769183562,366.92529296875,4.7805004
Al2B2Zn2,4.224,dft,jarvis_alex,,0.5863589766174184,191.8243907579196,577.138671875,1.1760175
Cd2MgY,0.009,dft,jarvis_alex,,0.2546321842989276,130.6407223902024,228.3845367431641,1.7135352
BeRh2Si,0.137,dft,jarvis_alex,,0.3063628569242893,229.26388498611416,509.112060546875,1.1226984
Hf2SnTi,6.3,dft,jarvis_alex,,0.8502743293144935,112.86339482107796,265.9940490722656,4.3807607
Pd3Zr,0.0,dft,jarvis_alex,,0.1846847659438179,190.5401206128354,352.9852294921875,1.402686
OsSc2Zn,0.39,dft,jarvis_alex,,0.363081437735634,167.4127330412116,343.095458984375,2.092469
BeCoGeRu,0.0,dft,jarvis_alex,,0.1786911882561333,247.2482551752085,496.4012756347656,2.0940068
AgMoZr2,2.588,dft,jarvis_alex,,0.52475596759641,172.85242222316384,282.9811706542969,3.0931416
AlAu2Li,0.33,dft,jarvis_alex,,0.3720742395734048,120.13947369262712,225.8977508544922,1.1380161
BeCo2Tc,0.085,dft,jarvis_alex,,0.2853089870640351,292.79569412856017,588.18408203125,2.872388
AuNTi2V,0.792,dft,jarvis_alex,,0.3965332188476325,194.8402845429061,398.57122802734375,4.8406777
MgNiSb,0.0,dft,jarvis_alex,,0.2081187481940977,218.7932287065116,335.6019592285156,1.8434579
OsV2W,0.809,dft,jarvis_alex,,0.3769187876366273,271.545260069675,402.7148742675781,2.5404005
BeOsRhSi,0.001,dft,jarvis_alex,,0.215384499830298,280.02825160275734,469.3909301757813,1.2566391
MgRu2W,0.267,dft,jarvis_alex,,0.3381987511297342,191.5933480595197,405.4181213378906,1.3119628
B2Co2La,0.039,dft,jarvis_alex,,0.2675096172691201,287.15524169526805,505.8069152832031,2.4029164
Ni2V6,9.255,dft,jarvis_alex,,0.6878437334534419,269.07703472827,521.1201171875,10.387433
Rh2YZn,0.014,dft,jarvis_alex,,0.2605156991504946,146.4388958966259,318.9024353027344,2.5095854
CRe3,0.922,dft,jarvis_alex,,0.3846977707434774,272.17416678747963,471.64013671875,1.9465284
C2Ge2Zr4,0.918,dft,jarvis_alex,,0.40437933583671,201.9096185482323,514.4226684570312,3.334878
HSnTi2V,0.543,dft,jarvis_alex,,0.3558554315808814,267.47208367540986,417.9410705566406,2.628764
CGaTi2,0.058,dft,jarvis_alex,,0.2812105167254892,234.86372852462043,613.1007690429688,1.3562832
CuOsTi2,0.294,dft,jarvis_alex,,0.3384597511344332,210.2208534723226,322.1864929199219,2.7124708
Ru2Ta4,0.263,dft,jarvis_alex,,0.3329848012668846,214.07091908541804,320.0787658691406,3.726304
CuLiMgRh,0.0,dft,jarvis_alex,,0.1799818573703295,186.2414727775985,321.0624694824219,1.2687584
NbRe2Ta,0.001,dft,jarvis_alex,,0.220808685895999,239.64642150531225,347.6710205078125,1.4464717
CrVW,0.009,dft,jarvis_alex,,0.2408382494551245,301.1738149390722,442.3099060058594,1.6205049
AlTi2W,1.956,dft,jarvis_alex,,0.4601635396924413,224.2794325189444,383.4454040527344,4.4722013
Cr4TiZr,0.308,dft,jarvis_alex,,0.3277949356814563,283.78717851552403,416.683837890625,4.2259912
Mg2Rh3Sn,0.0,dft,jarvis_alex,,0.0725056024621929,210.34885789756703,338.9618225097656,2.4590962
PtRhZn2,0.0,dft,jarvis_alex,,0.0895536807630052,164.2874607192949,308.2598571777344,1.2606024
RuTc2Zr3,0.385,dft,jarvis_alex,,0.3486464181916964,219.9942715688776,370.0289001464844,6.6610837
BBiSc3,0.001,dft,jarvis_alex,,0.2110014370260299,254.45815551347064,402.5248107910156,3.2678664
AlVZn2,0.0,dft,jarvis_alex,,0.1323234176125137,301.9452604241544,417.6878967285156,1.3648006
Ni4Sc2Si2,0.01,dft,jarvis_alex,,0.2432055298599145,275.9478291862636,446.7840881347656,5.2463136
NbTc2V,0.227,dft,jarvis_alex,,0.3162431993567886,284.60346620729365,420.654541015625,1.5516585
Ru2TaZr,8.042,dft,jarvis_alex,,0.7684548101460802,179.68612492093217,368.7498474121094,3.9940097
FeTaTcTi,0.0,dft,jarvis_alex,,0.1637915141784786,286.9076736196723,388.73248291015625,2.203137
HfNiP,4.593,dft,jarvis_alex,,0.6376273991500648,162.599383373529,401.3799743652344,1.8946325
HInPdRh2,0.7,dft,jarvis_alex,,0.3786209625795776,228.05257935237745,328.18572998046875,5.109045
AlCdLi2,1.099,dft,jarvis_alex,,0.422723870335846,190.20800117261967,333.1341247558594,1.2728863
AlHgTi2,0.16,dft,jarvis_alex,,0.3128266374696927,220.95192960978125,356.11346435546875,4.5607295
BeHfRh2,0.0,dft,jarvis_alex,,0.1576719796006677,236.7826789257799,360.0553894042969,1.5030879
Al3Nb,0.0,dft,jarvis_alex,,0.0815986139298307,356.19524270448346,602.4874877929688,0.7229275
AlGaLiPt,0.242,dft,jarvis_alex,,0.3347947637792742,187.6051488439309,287.3190002441406,0.7279798
Re2Tc6,13.325,dft,jarvis_alex,,0.9415834140755834,199.6531460121397,458.287109375,4.8785567
PdZn3,0.074,dft,jarvis_alex,,0.3008776387279844,146.58348496603148,287.2098388671875,1.0896899
LaSi2Tc2,5.25,dft,jarvis_alex,,0.6723399419087294,160.77434992594831,403.2711181640625,5.4462094
HfNbReTc,0.045,dft,jarvis_alex,,0.2762122894439434,226.34261636110392,348.0533142089844,1.9683181
CoPdV2,4.985,dft,jarvis_alex,,0.5763209017329622,240.75769778728977,487.17041015625,4.8853145
RuTa2Tc,8.073,dft,jarvis_alex,,0.7902552818345756,169.39380878138368,365.4598083496094,2.5624406
PdTcTi2,0.488,dft,jarvis_alex,,0.3637782679597429,206.4323793239304,368.3666687011719,3.337254
Co2HRuV,1.372,dft,jarvis_alex,,0.4111254379353771,275.7046559322731,504.4925231933594,3.4592922
Pd3Zr,0.0,dft,jarvis_alex,,0.1013694792679743,198.7725337147221,354.5228576660156,0.80584097
NScTlY2,0.0,dft,jarvis_alex,,0.2042044201155264,253.16051793802245,322.7911682128906,2.7812583
CRh3Y,0.347,dft,jarvis_alex,,0.3521513974999231,183.9114734459324,399.2057189941406,0.53531927
AgAl7,1.423,dft,jarvis_alex,,0.4271121207050277,233.6862603221429,402.3364562988281,4.294865
ReRh2Zn,0.214,dft,jarvis_alex,,0.3262551605387364,204.94759093201068,393.0743103027344,2.9732993
AlLiPt2,0.0,dft,jarvis_alex,,0.1825324201792424,160.0665114142925,330.0083312988281,1.000871
AlNbRh2,0.8,dft,jarvis_alex,,0.3937610480551843,205.69948602617035,438.5674743652344,3.5480018
N2Sc4Sn2,0.002,dft,jarvis_alex,,0.2220480853868789,280.5271748846212,414.2373962402344,2.2829845
AuPtZn2,1.013,dft,jarvis_alex,,0.4938956024763713,85.47201468639273,232.66680908203125,1.5175347
AlGa2Hf,2.237,dft,jarvis_alex,,0.5098968240893421,166.4774791049094,307.6358947753906,1.1301843
AlOY3,0.631,dft,jarvis_alex,,0.3767434648088,211.9778256250242,402.0228271484375,1.90745
Rh2SiZn,0.225,dft,jarvis_alex,,0.3353883306849065,172.26706131476502,368.1814880371094,1.5186816
Al3Os2Rh,0.141,dft,jarvis_alex,,0.3130990146041134,192.4227849175641,431.0381774902344,4.7299457
CuRhZn2,0.0,dft,jarvis_alex,,0.2041082850153942,173.9796077619291,313.7893371582031,0.8471022
Al2Ti2Zn2,0.014,dft,jarvis_alex,,0.2505275168009998,249.9353679293931,452.1246643066406,4.053528
OsSiTcTi,0.051,dft,jarvis_alex,,0.2754809839260879,262.45053820270294,427.8657531738281,2.0358067
HHgNbTi2,5.626,dft,jarvis_alex,,0.6687467954302577,174.47527795261172,314.4532470703125,5.1002364
BInRh3,0.008,dft,jarvis_alex,,0.2481613932067174,161.22637568539503,420.3895263671875,5.1718316
Cr4HfTi,0.114,dft,jarvis_alex,,0.2938291539390233,288.038109718767,392.2182312011719,4.9522095