formula,Tc,tc_source,dataset,pressure_gpa,lambda,wlog,debye_temp,dos_ef
CuTc2Ti3,2.018,dft,jarvis_alex,,0.4663792733137857,217.78916298250977,381.0315551757813,4.4108124
HPbRh3,0.083,dft,jarvis_alex,,0.2932463071209946,213.2003115756835,299.5743713378906,2.5330935
AlOs2Ti,0.316,dft,jarvis_alex,,0.3404010153715796,215.8052329488102,385.2203674316406,2.6179998
AlPdRhSc,0.241,dft,jarvis_alex,,0.3511911504483715,130.1825973761287,384.1958312988281,2.5935185
NbRu2Zn,0.506,dft,jarvis_alex,,0.3650261828825257,209.40720191844625,375.9417114257813,3.6511407
Cu4HfRh,0.017,dft,jarvis_alex,,0.2602778557783798,174.94418846908505,289.7358703613281,3.6283813
CaHg2In,1.323,dft,jarvis_alex,,0.5380749238834074,80.5051594473504,167.48153686523438,2.7130852
MoNi5,0.013,dft,jarvis_alex,,0.2496047356720875,249.96207931730223,463.0791320800781,6.85209
Rh3Zr,0.483,dft,jarvis_alex,,0.3603257157734967,218.75214050725523,418.5844421386719,4.399956
LiPd2V,3.191,dft,jarvis_alex,,0.5542066125660413,175.10097690959648,347.8760681152344,3.9392827
NPdTi2,0.754,dft,jarvis_alex,,0.3725767529703,272.054101825675,543.7550048828125,2.8896608
BeRuTc,0.172,dft,jarvis_alex,,0.305587041184917,294.4936687423547,542.5953369140625,1.3733273
GaRh7,0.88,dft,jarvis_alex,,0.3913214806197097,234.78653007755435,414.7852478027344,7.4601855
AlRu2Si,0.063,dft,jarvis_alex,,0.2811555762674259,258.00223835858424,516.4554443359375,2.8341079
CoHfScTc,0.001,dft,jarvis_alex,,0.2172074145221068,226.6117913465564,360.8973083496094,4.826079
CuHMg2Rh,0.761,dft,jarvis_alex,,0.399111470943767,180.4039420008069,348.2247314453125,0.51085025
ReTa3,0.8,dft,jarvis_alex,,0.4017856079425648,183.0730442579581,305.3337097167969,3.8867242
PtTcTi2,1.717,dft,jarvis_alex,,0.5002472813448025,137.50409441118194,350.0899658203125,3.0928442
Mg2Ti2,0.315,dft,jarvis_alex,,0.335903315954308,238.9679809570322,393.2080993652344,6.992354
LiMgPdZn,0.104,dft,jarvis_alex,,0.3079771981495388,165.41983677638257,278.363037109375,0.96368045
Nb4W3,0.959,dft,jarvis_alex,,0.4077440631435119,201.7944376951327,312.7798156738281,5.830393
Hf2NSn,1.413,dft,jarvis_alex,,0.4273775383521194,230.9229596209912,300.9257507324219,2.5528347
Ga2NiRu,0.291,dft,jarvis_alex,,0.3483945904022185,166.97345364617013,376.2455749511719,1.1670882
LiRh2Ti,0.003,dft,jarvis_alex,,0.2304132291800324,228.4061660174733,406.8795166015625,2.6943035
GaMoTi2,0.759,dft,jarvis_alex,,0.3768175087649357,255.47380914065292,393.9432678222656,2.878382
Li2Mg2,0.102,dft,jarvis_alex,,0.2969035770246988,230.9203511373779,351.8444519042969,2.0303493
MgTiZn2,0.167,dft,jarvis_alex,,0.3195978469149205,190.5613352031704,339.4750061035156,2.2729635
Cu2LaNaP2,0.0,dft,jarvis_alex,,0.1802228576522144,224.85115546544264,352.1853332519531,0.55956674
CdLa2OY,1.449,dft,jarvis_alex,,0.5071708881557592,109.87067730872496,273.4801025390625,4.0588384
Co2MoZn,0.43,dft,jarvis_alex,,0.3546367533889393,217.256481080098,456.67578125,3.2613723
GaRu2Zr,0.27,dft,jarvis_alex,,0.3358985317136375,205.0109315348309,388.4671325683594,3.7325044
Ni2VZn,0.109,dft,jarvis_alex,,0.2937014346043364,277.34891505211783,437.8120727539063,2.208892
Al4NbSc,0.0,dft,jarvis_alex,,0.1448700101226298,278.5197443930127,589.4898071289062,0.9723328
Ni2RhRu,0.061,dft,jarvis_alex,,0.2789775630257143,270.8675157341446,443.3798522949219,4.560254
Sc2Si2Ti2,0.5,dft,jarvis_alex,,0.349947707668314,277.91590264911525,529.6695556640625,4.6763344
Pt2Ru,5.6,dft,jarvis_alex,,0.7948018155449623,115.27889854275436,333.3638000488281,4.12989
RuScTcW,0.0,dft,jarvis_alex,,0.1516468411579153,249.3374001373521,393.8575744628906,1.4947046
Co2RuTi3,6.158,dft,jarvis_alex,,0.6996465471798375,170.81458411614773,456.7125549316406,5.1158004
NbRh,6.35,dft,jarvis_alex,,0.7071558703302057,171.69051297829557,378.42041015625,1.8902308
Co2Lu2P2,4.271,dft,jarvis_alex,,0.6015630378808631,179.52540288909734,349.989013671875,4.71901
Zn3Zr4,4.99,dft,jarvis_alex,,0.6408669843018229,175.03575063650783,347.2505187988281,7.206777
NTlY3,0.0,dft,jarvis_alex,,0.2005220377103718,237.02666133228703,325.26141357421875,2.4198995
Mg2N4Ta2,16.506,dft,jarvis_alex,,1.1449877096996162,178.0121577969481,597.8568115234375,2.4025855
PtRuW2,0.819,dft,jarvis_alex,,0.3973038332122925,199.9268602762941,379.4751586914063,1.960101
N3OY4,0.152,dft,jarvis_alex,,0.2901606480405146,439.0631803842032,519.9879150390625,2.0743895
GaOsSc2,0.006,dft,jarvis_alex,,0.2395290151666059,208.92655388546248,328.104736328125,1.8819495
BPdRh2Y,0.0,dft,jarvis_alex,,0.0858059471231883,194.3312709125403,366.1652526855469,0.505759
Cr4NbZr,0.842,dft,jarvis_alex,,0.376375386347094,285.4131359350204,382.91888427734375,3.509289
Pt2ZnZr,0.028,dft,jarvis_alex,,0.274786619009572,149.8090896046172,283.95379638671875,0.59185255
AlCuHRh2,1.013,dft,jarvis_alex,,0.4186856262324381,184.239270737012,406.2232360839844,3.2538602
AlHNi2Pd,0.0,dft,jarvis_alex,,0.1053993898480331,250.92876324100183,400.9654541015625,0.9357515
Re2TaTi,0.005,dft,jarvis_alex,,0.2362810023431494,238.9676493646452,331.1196594238281,2.3033993
HfTc3V2,0.351,dft,jarvis_alex,,0.3364860757975118,262.2838716461199,408.7532653808594,3.741826
Mo2Sc2,0.293,dft,jarvis_alex,,0.3334262871110599,235.8325325129816,374.2438659667969,2.9591699
InNSc3,0.0,dft,jarvis_alex,,0.1435382363394228,348.248826249479,502.0635681152344,2.9046423
CInScY2,0.0,dft,jarvis_alex,,0.188537470533195,207.08360540797125,397.24896240234375,0.97694784
C2NbZr,6.372,dft,jarvis_alex,,0.5283422223376363,414.21166271003,694.9774169921875,0.98594385
TcZnZr2,0.631,dft,jarvis_alex,,0.3837403757476529,189.4127582704078,289.04412841796875,2.803432
AlTaTi2,6.465,dft,jarvis_alex,,0.7113114020577451,171.8918432043336,378.4031066894531,5.1733456
BeNi2Ti,2.742,dft,jarvis_alex,,0.5134795532813043,198.5597707588071,497.33148193359375,2.0454621
Al6Li2,1.904,dft,jarvis_alex,,0.4309373330480929,299.1326943530222,572.7412109375,2.0086586
NbNi2Rh,0.0,dft,jarvis_alex,,0.178512048924929,250.26721067431484,452.3332214355469,1.0354166
AlTi2W,0.332,dft,jarvis_alex,,0.3401072910851606,228.03806493175523,342.305908203125,2.3104985
CdMoTi2,3.329,dft,jarvis_alex,,0.5365143229269627,205.0061493984493,360.6753234863281,4.083492
PdRuSc2,0.0,dft,jarvis_alex,,0.1362196700899833,222.0802891046873,358.9328308105469,1.2097516
HfNbZn2,0.807,dft,jarvis_alex,,0.4125330748450301,159.28400556830448,325.12774658203125,2.2722878
Rh2RuW,0.445,dft,jarvis_alex,,0.3515474616923356,239.7678706460091,448.1185302734375,2.2026894
AgAuZn2,0.293,dft,jarvis_alex,,0.3726361872569137,105.63709473648396,196.9254608154297,1.0529007
LaNiP2,1.884,dft,jarvis_alex,,0.4527264721393795,232.8898787500713,400.2236633300781,2.4142256
Hf2N,1.848,dft,jarvis_alex,,0.4612022059480469,209.2193282990618,350.1337585449219,2.2590785
Al3Ru2,0.0,dft,jarvis_alex,,0.2075869491400528,275.8924090919149,528.79345703125,1.4683728
GeTc2W,9.117,dft,jarvis_alex,,0.8836107005493314,152.17645623247247,383.3561706542969,2.284257
CaInLa2N,0.334,dft,jarvis_alex,,0.3668343666866099,133.46974026022687,298.6691589355469,2.1837933
GaRu2V,0.125,dft,jarvis_alex,,0.3000672335647225,254.9383116130833,437.8338928222656,1.6090896
Hf2OsTc,0.006,dft,jarvis_alex,,0.2409374811896185,216.859298977606,319.7840576171875,2.5904055
Al2Ni2Ti2,10.01,dft,jarvis_alex,,0.9427738888578392,148.2669973315987,490.48333740234375,4.650699
Ni2Tc,0.001,dft,jarvis_alex,,0.215720564986559,257.9421239161588,446.25341796875,1.480519
Nb2OsTc,9.158,dft,jarvis_alex,,0.793498349407155,190.56284102619009,388.4135437011719,2.8408098
HLa2P,0.029,dft,jarvis_alex,,0.2738975570898249,159.76181355604191,333.3013610839844,1.7328672
LuRu2Sn,0.278,dft,jarvis_alex,,0.3470517508366682,164.35279437205867,310.56591796875,4.510381
MoPtRh2,4.24,dft,jarvis_alex,,0.5666361057222827,216.79463465374212,395.1292419433594,4.108456
ReZnZr2,0.996,dft,jarvis_alex,,0.4199140079375041,178.85165583525406,299.32666015625,2.3045325
MgSc3Zr2,4.042,dft,jarvis_alex,,0.5971235499605907,174.41809465564148,312.8917541503906,7.1704264
RuTi2,0.899,dft,jarvis_alex,,0.3791885950148022,290.8006336232924,483.4266662597656,3.419575
CuRuZr2,2.713,dft,jarvis_alex,,0.5975694758490538,116.26063809508923,322.9812316894531,2.960474
MgPd2Zn,0.0,dft,jarvis_alex,,0.1355579594129383,179.40314905899376,312.6908264160156,0.98780656
NbScTc2,1.272,dft,jarvis_alex,,0.417694512262485,235.1475941007404,396.9461975097656,3.6829953
O4Os2,4.362,dft,jarvis_alex,,0.4684582460462806,460.9658216296775,446.6664123535156,4.4692726
P4Zr4,0.001,dft,jarvis_alex,,0.2177548326476907,279.87748960428326,490.8540954589844,3.6491647
P2SrZr,0.001,dft,jarvis_alex,,0.2145021987839886,267.72392040635566,389.7795715332031,0.6106564
AlZn,1.545,dft,jarvis_alex,,0.4519968451811635,192.19954111694256,396.6902770996094,0.7305253
ScZnZr,1.78,dft,jarvis_alex,,0.4785188329408078,171.74890747475615,339.6103210449219,2.692571
AlNbOsTc,0.085,dft,jarvis_alex,,0.2921777879953047,228.4403042766466,433.1224670410156,2.111748
InLiRhZr,1.762,dft,jarvis_alex,,0.4765388081221831,172.84231718789843,315.3440856933594,5.5188904
Cu2GaZn,0.02,dft,jarvis_alex,,0.2626562013440796,184.3582771585716,327.94219970703125,1.5275298
MoRuV2,0.819,dft,jarvis_alex,,0.371984010026424,299.34271674907416,474.3062438964844,1.4190897
LiOsSc2,0.098,dft,jarvis_alex,,0.2992793158682473,206.21087966499687,304.7996520996094,3.3949606
OsRu3,2.251,dft,jarvis_alex,,0.4597697071967069,259.63482680100685,518.4592895507812,2.9020233
BeMnTi2,1.587,dft,jarvis_alex,,0.4222992577901953,276.4921556888992,523.77685546875,2.0629625
AlNbZn2,0.0,dft,jarvis_alex,,0.1413647260694578,270.2801227274168,424.1067810058594,0.9512573
GaLiNi2,0.0,dft,jarvis_alex,,0.1559585994982407,209.57546060488107,377.5184631347656,1.3708003
P2SrTcV,5.602,dft,jarvis_alex,,0.664589909270712,176.94185825378565,385.3265686035156,3.4724624
BInRh2,3.28,dft,jarvis_alex,,0.5957538767931624,141.80616337422975,437.27447509765625,1.7017592
BeGaRh2,0.0,dft,jarvis_alex,,0.125792558302271,250.68865535187203,464.2082214355469,1.1530228
Al2,2.206,dft,jarvis_alex,,0.4510215472338558,277.50068464922515,526.73046875,0.9002037
AlRhTiZn,0.003,dft,jarvis_alex,,0.2343314632624948,182.0162584032223,372.7249450683594,1.2471874
HfTc3Ti2,2.151,dft,jarvis_alex,,0.4651296068375082,235.16347863253853,372.3775329589844,5.9405246
LuRuSi3,2.906,dft,jarvis_alex,,0.5075962872355966,219.9817424308223,407.7239685058594,2.0931144
GaLiPdRh,0.0,dft,jarvis_alex,,0.1113131944377244,212.7168524120273,349.5015563964844,1.1825808
Be3Ni5,0.0,dft,jarvis_alex,,0.1633677180751149,311.30823086633364,530.4600830078125,2.7265732
C2LuNb,0.064,dft,jarvis_alex,,0.273546305681306,358.2364656143709,545.4903564453125,0.7515243
CScTi2Tl,0.22,dft,jarvis_alex,,0.328303358777939,199.8583159444308,444.8804626464844,4.032952
BeCuPt2,0.0,dft,jarvis_alex,,0.2109202472158822,164.27869861545395,333.92144775390625,1.276145
B4HfTi,0.0,dft,jarvis_alex,,0.0979227609671604,569.5263910528615,857.3472900390625,0.7001793
Cr2VW,0.009,dft,jarvis_alex,,0.2409629664664605,315.3123003034847,450.2281494140625,2.01964
AlCaLiZn,0.004,dft,jarvis_alex,,0.2352335487777878,215.8806407937433,335.7403869628906,1.2287365
NTi,8.979,dft,jarvis_alex,,0.5813767629942548,420.5511564924157,890.0111694335938,1.1357993
GaH2Y2,0.232,dft,jarvis_alex,,0.3304323704793842,199.9937592140274,394.9840087890625,1.6852267
Be4Zr,4.943,dft,jarvis_alex,,0.5739440817363675,240.5283821708801,756.252685546875,1.7638607
HLa4,8.013,dft,jarvis_alex,,1.0634050468140552,96.9881113511679,206.2728729248047,5.288407
H2Nb2Os,13.543,dft,jarvis_alex,,1.0907901598630407,156.96926486846485,456.581298828125,4.420957
Mn2MoTi,0.05,dft,jarvis_alex,,0.2718465441313057,304.2258713705455,482.0914001464844,1.6691308
AlBeNi2,0.001,dft,jarvis_alex,,0.2173978764940481,299.7104240207701,511.1299743652344,1.7387302
CPdTi2,2.918,dft,jarvis_alex,,0.5154523639409482,207.78118339969217,538.9033203125,3.630633
HfN2Y,1.692,dft,jarvis_alex,,0.3999061333113316,396.9560161806109,544.291259765625,1.0436838
LiRh2Ta,0.002,dft,jarvis_alex,,0.2256883571880128,200.4166224533097,315.7182922363281,1.9247608
Al2TaTi,0.554,dft,jarvis_alex,,0.3653771654440508,227.6590795053928,467.2998962402344,3.2017772
Mo2PtRh,4.491,dft,jarvis_alex,,0.5834182517394992,208.70860913871044,401.1271667480469,2.6517072
Sc3Zr,4.477,dft,jarvis_alex,,0.6095166526535662,181.5446097450856,303.0946044921875,6.0507336
Sc2Zr2,4.401,dft,jarvis_alex,,0.6209621550634004,168.81219216457004,301.7521057128906,6.8663487
AlCdSc2,0.011,dft,jarvis_alex,,0.250390817823998,204.26480506003875,342.1543273925781,2.549123
AlY2Zn,0.144,dft,jarvis_alex,,0.3190488796181822,167.33896553119794,319.96881103515625,3.2188008
Pt3W,0.409,dft,jarvis_alex,,0.3645576660876934,170.73630942312403,318.2048034667969,3.306711
HgNbZr2,6.259,dft,jarvis_alex,,0.7374004391591041,152.93937196477188,271.79473876953125,4.2624235
CaH3Ni,0.0,dft,jarvis_alex,,0.1377819172325083,878.4073406591297,505.2203674316406,0.8865029
LiMoPd6,0.019,dft,jarvis_alex,,0.2608166788833587,191.3560464735785,321.9644775390625,6.6048775
OsTc3,8.331,dft,jarvis_alex,,0.692520063064017,238.18000959687868,485.80902099609375,4.071114
Cr3Si4,0.0,dft,jarvis_alex,,0.181708522972973,391.52505290108246,792.9098510742188,3.2295132
HfTc4Zr,17.349,dft,jarvis_alex,,1.3447908865752205,154.28166082854148,311.1654968261719,9.271728
Mo2TaW,0.004,dft,jarvis_alex,,0.2314679032775956,241.13113751823823,362.0633544921875,1.9306082
CaIrK2O6,0.0,dft,jarvis_alex,,0.100015759202139,296.8388543630948,417.2400207519531,4.8471193
HfScW4,0.022,dft,jarvis_alex,,0.2645967044076052,191.1284988568872,305.556884765625,4.718988
Os2TiV,2.605,dft,jarvis_alex,,0.483807228602652,240.0681111671913,409.288818359375,2.7740963
AlBe4Pt,1.686,dft,jarvis_alex,,0.41129929425103,337.64845957645554,666.1649780273438,0.6280551
GaNbRh2,0.801,dft,jarvis_alex,,0.3958072891647975,199.8618853429996,368.8250427246094,3.7146363
GaNiV2,3.228,dft,jarvis_alex,,0.5129140329200129,235.09986631356347,422.5929260253906,3.5325503
CrRh3,0.952,dft,jarvis_alex,,0.3863289833311377,274.2920080233488,466.1367492675781,4.992223
PdScZn4,3.515,dft,jarvis_alex,,0.6365646084019896,125.13870276879402,328.7086181640625,4.6375175
Al2Li2Mn2,0.155,dft,jarvis_alex,,0.3003724191090346,313.5028272141986,547.1094360351562,3.0786762
MgNNi2Pd,6.084,dft,jarvis_alex,,0.6748412101610528,184.25767966856657,407.42193603515625,3.3834503
CaPPd,1.344,dft,jarvis_alex,,0.4371687862141354,196.41884935979004,340.0208435058594,1.9709746
HfMoNbRe,0.584,dft,jarvis_alex,,0.372300291658366,212.2527817410817,356.2235107421875,3.1060634
AsLuNi,0.671,dft,jarvis_alex,,0.4069765067519242,142.74618666921478,295.3909912109375,1.4391379
P2S2Zr2,4.754,dft,jarvis_alex,,0.5553679272351814,259.30232366987804,448.4876708984375,1.3975646
Pt2RhW,1.588,dft,jarvis_alex,,0.4572069841057684,187.8183999911506,330.51434326171875,3.8247278
HNb2SnTi,4.847,dft,jarvis_alex,,0.6451396396960613,165.780163364161,391.3709106445313,4.0021825
NiTcTi2,1.186,dft,jarvis_alex,,0.4284455863801377,191.6721567085704,395.6539611816406,3.4656343
NiPdSc2,0.163,dft,jarvis_alex,,0.3252412436814503,160.6708423286167,324.7024230957031,2.541855
OsRh2V,2.706,dft,jarvis_alex,,0.4922769801525673,232.3498909548485,446.2080383300781,3.3953993
Al2C2Ta4,0.112,dft,jarvis_alex,,0.296627138501472,257.6900813442011,446.48486328125,3.6328208
Ni2Sc2,0.106,dft,jarvis_alex,,0.3087055312338055,164.54472902887758,376.5554504394531,2.2010317
ReV2W,0.003,dft,jarvis_alex,,0.2282057342243324,280.857347898592,418.1195373535156,1.3766974
H2V2W,0.744,dft,jarvis_alex,,0.3637182177240753,314.9629507627568,530.0047607421875,1.1863979
In2Rh3Sc,0.0,dft,jarvis_alex,,0.1506850653145113,176.49043122894992,358.1928405761719,3.013761
P2Ti2Y2,0.038,dft,jarvis_alex,,0.2683413982731642,268.08888587544504,435.6873168945313,5.9446807
Re2VW,5.317,dft,jarvis_alex,,0.598707004354674,227.57237309203447,389.6453552246094,3.4155512
CuGaLiSc,0.0,dft,jarvis_alex,,0.109348431534348,230.02789382689784,332.8169250488281,0.777704
Cr2Rh3,8.429,dft,jarvis_alex,,0.7062797836070434,229.07109034859988,463.4045104980469,5.416924
PtRh2,1.15,dft,jarvis_alex,,0.4186899058736104,209.8759741086266,375.3146362304688,4.462717
AlOsTc,0.643,dft,jarvis_alex,,0.3721684394586782,233.9768697891245,451.7793884277344,1.8445615
InS2Zr,3.959,dft,jarvis_alex,,0.7238284347718347,100.40916730004209,256.6905212402344,1.7610617
NTlY2,0.695,dft,jarvis_alex,,0.400416636774172,161.79851071694577,258.0607604980469,2.2267678
CoRuVZn,0.0,dft,jarvis_alex,,0.1726110965103935,257.48999912492354,415.8069763183594,0.92093766
La2N2Pt,0.002,dft,jarvis_alex,,0.2218645288799493,310.4808990536544,359.9305725097656,0.6571041
Cu6Rh2,0.0,dft,jarvis_alex,,0.1672413593859978,190.24136579308785,332.1226501464844,7.28047
GaPdRuSc,0.0,dft,jarvis_alex,,0.1176798663476488,229.3531318174422,365.0627746582031,1.2056253
In3Rh2Sc3,0.77,dft,jarvis_alex,,0.4015335333967801,176.59090430175007,288.8512878417969,6.15679
Be4ReTi,0.564,dft,jarvis_alex,,0.3418698377133934,372.7223137322615,663.773193359375,3.5317852
Ta2TcW,0.001,dft,jarvis_alex,,0.2208077523101626,225.68950106406243,376.8088989257813,2.0558064
RhSi3Sr,2.145,dft,jarvis_alex,,0.4558187807535591,256.8747187474521,397.3705139160156,1.8978497
GaNSc2Y,0.001,dft,jarvis_alex,,0.2186015925119019,242.8216202530928,492.1131896972656,2.6113958
Be4OsSi,0.0,dft,jarvis_alex,,0.0842592051526787,425.3195685018863,757.4667358398438,0.5795051
HfTc2Zr,0.976,dft,jarvis_alex,,0.4061587148817891,210.07734650968348,324.6828918457031,3.926194
RhZn,0.002,dft,jarvis_alex,,0.2282886875886987,166.67798937155197,340.1156921386719,1.4402926
O6OsTc,0.001,dft,jarvis_alex,,0.2126736959134422,527.5762270509853,561.498779296875,2.3453577
B2C2Ni2Sc2,0.022,dft,jarvis_alex,,0.2483522619024725,459.7666450562765,636.6928100585938,1.2671788
PSc2Se,0.004,dft,jarvis_alex,,0.2323087717398271,262.9235473974685,454.0995788574219,1.5815234
N2Zr4,0.525,dft,jarvis_alex,,0.3494426202435917,294.798721223443,479.7255554199219,3.3286164
AlMgPdPt,0.349,dft,jarvis_alex,,0.37755982328167,115.53703516619296,281.5454406738281,1.9036307
Cr4TiV,1.426,dft,jarvis_alex,,0.4043296178753337,314.8669546888967,497.5673522949219,3.8812973
GaLiMg2,1.798,dft,jarvis_alex,,0.5148397705803981,128.64457489850628,343.2601013183594,0.8337409
Nb2OsTc,8.4,dft,jarvis_alex,,0.7830997669678126,179.469335022261,393.7001647949219,2.395022
NiPdSc2,0.488,dft,jarvis_alex,,0.3862580713963256,140.70330458114586,337.7473449707031,2.2846546
PtRh5,0.575,dft,jarvis_alex,,0.3651858491238701,237.633871904324,424.6207275390625,8.395447
InSTi2,0.03,dft,jarvis_alex,,0.2659104093778988,235.62877240091203,377.7809143066406,2.6516273
TaTc2Ti,0.054,dft,jarvis_alex,,0.276462504662286,265.19140017670554,395.8589782714844,4.0550294
AgAlLiMg,0.001,dft,jarvis_alex,,0.2141167385815529,266.2229753531799,320.65826416015625,1.0783994
Fe2HfTi,0.0,dft,jarvis_alex,,0.1500449824307932,277.6749737968256,397.0807189941406,0.7713081
Al7Mg,0.737,dft,jarvis_alex,,0.3665432167527311,297.08259051342026,427.2264709472656,2.277454
Os2TiV,2.907,dft,jarvis_alex,,0.4914467509600132,251.12135097137963,386.2272644042969,3.577902
HfOs2Ti,0.0,dft,jarvis_alex,,0.0981604452624816,255.5257003579169,376.97705078125,0.7698764
NbRe2W,4.841,dft,jarvis_alex,,0.6036241089595353,202.29060681195992,361.1982116699219,3.146879
K2O6OsTi,0.0,dft,jarvis_alex,,0.1936356917618023,471.3058456028745,560.1441650390625,2.0808277
Cr6Os2,21.104,dft,jarvis_alex,,1.2024763685850373,217.2587429997841,422.3244018554688,11.918167
NPdTi2,2.233,dft,jarvis_alex,,0.4772429114393089,217.4025568922653,543.52490234375,3.9091237
C2Sc4Sn2,0.267,dft,jarvis_alex,,0.351622048408811,143.2234720879361,436.4162902832031,4.361643
Be2PdPt,0.031,dft,jarvis_alex,,0.2655900150650754,250.2269496227744,400.2170715332031,1.3150203
GaLiRh2,0.119,dft,jarvis_alex,,0.3102704631278709,176.44919387477984,382.80963134765625,4.2028728
NbReTa2,0.361,dft,jarvis_alex,,0.3495207271293836,202.318050945134,326.3653869628906,3.876017