formula,Tc,tc_source,dataset,pressure_gpa,lambda,wlog,debye_temp,dos_ef
PdRhTiZn,1.265,dft,jarvis_alex,,0.469125924646922,132.77705018794128,355.98321533203125,3.2421904
HfN2Na2,0.0,dft,jarvis_alex,,0.1757220997445177,319.95429252392114,264.1754150390625,0.8528159
LiRhRuTa,0.012,dft,jarvis_alex,,0.2525119045673767,200.9089533174741,344.7239074707031,2.7445557
B4Tc2,0.002,dft,jarvis_alex,,0.215279419896391,495.860834411744,900.3067626953125,1.8209697
LiMoReSi,0.001,dft,jarvis_alex,,0.2179568817146858,272.34966399902856,399.7417602539063,0.5023846
CoLi2NPd,0.0,dft,jarvis_alex,,0.1911878019479428,287.4601877503256,474.2277526855469,2.1664414
HfRu2Sc,0.0,dft,jarvis_alex,,0.177777108595672,227.9143914371189,359.4801025390625,1.855872
CoGe3Y,0.076,dft,jarvis_alex,,0.2949047014507125,185.30610667860103,345.2140808105469,1.332565
Cu6PtRh,0.0,dft,jarvis_alex,,0.1581559720794825,185.79913654101173,304.8375244140625,6.802802
HfN4Ti3,14.043,dft,jarvis_alex,,0.7340597700982717,345.8552305983607,640.788818359375,3.94341
AgLa2NRu,0.2,dft,jarvis_alex,,0.3448215907171543,123.68478775105125,250.43130493164065,2.211526
CoFeV6,1.954,dft,jarvis_alex,,0.4281895925462024,317.58221659552174,544.9680786132812,5.710475
NiRuScZr,0.124,dft,jarvis_alex,,0.3092836971276968,190.7767069920721,369.3116455078125,2.6276572
Sc2TlZn,0.003,dft,jarvis_alex,,0.2364212953100189,137.10664548977704,260.8403625488281,4.917519
AlMgZn,5.15,dft,jarvis_alex,,0.7078427317020628,138.16068883735153,381.5740051269531,1.0061377
Al2Zn2,0.951,dft,jarvis_alex,,0.4149732826179563,181.61945722318603,351.6811218261719,1.7094843
MgNi2Sn,0.036,dft,jarvis_alex,,0.279255799635491,160.24819398266746,336.5679016113281,2.0888457
Ru2TaZn,0.117,dft,jarvis_alex,,0.3063335166408328,195.58059077106188,369.9448547363281,3.1498246
PtRh6Ru,0.979,dft,jarvis_alex,,0.394568260650519,248.8757767534373,436.6573791503906,6.858783
CaLi4Na,0.001,dft,jarvis_alex,,0.211583225529741,222.17051878486444,279.18682861328125,4.566287
Al2Li,1.021,dft,jarvis_alex,,0.3883995218885174,284.6807354260804,601.947021484375,1.1437333
RhSc,0.0,dft,jarvis_alex,,0.0947291066858141,239.30836040823945,378.1527404785156,0.97607607
AlLiY2,0.151,dft,jarvis_alex,,0.3154160352647903,193.3400112902059,345.9067077636719,3.036583
MnNb2Tc,0.031,dft,jarvis_alex,,0.2632808793252039,279.8932599138501,396.6873474121094,1.7970053
Nb2W2,0.126,dft,jarvis_alex,,0.3036384579514671,229.25703561597723,325.3307189941406,2.489276
Li2PdSi,1.447,dft,jarvis_alex,,0.4322346031063118,223.4438154727328,388.5035095214844,1.5034457
NbTc2Zr,0.093,dft,jarvis_alex,,0.2926802844760581,245.12859362734204,412.2419128417969,3.196619
LiNi2Zn,0.018,dft,jarvis_alex,,0.2584742561695316,204.54041723834385,385.1206970214844,3.0836282
Mg2PtRh,0.0,dft,jarvis_alex,,0.1165664421801652,173.89241646747638,336.07208251953125,1.2903836
Be2LaP2,0.038,dft,jarvis_alex,,0.2709083377713461,240.3433363714917,521.2548217773438,2.0937603
CaCu2Li,0.0,dft,jarvis_alex,,0.1957973108614729,188.0167368095015,302.0472412109375,1.5023808
AlCo2Zn,0.0,dft,jarvis_alex,,0.1188258610347374,255.81940047936192,511.2492980957031,3.838373
Ge2NaRh2,0.013,dft,jarvis_alex,,0.2547010300120358,179.3567736084876,348.6737365722656,1.8836693
BaHg2Sr,0.542,dft,jarvis_alex,,0.4467065371890182,71.39772177194885,130.4617156982422,2.1029546
AuBe2Rh,0.004,dft,jarvis_alex,,0.2304655106549235,265.3093528914327,274.3965759277344,1.0176941
InRh7,0.636,dft,jarvis_alex,,0.3730275706807696,228.6176737724169,391.2037658691406,6.8036885
ReTi,0.993,dft,jarvis_alex,,0.4009819149993432,229.59250261640656,310.77459716796875,2.1715336
C2Sc3,0.049,dft,jarvis_alex,,0.2671529740955045,369.9931057142171,641.0958251953125,2.1633623
H2Ti2,1.083,dft,jarvis_alex,,0.4094376947577055,222.39033324304603,495.0130310058594,1.4172168
NiRhScZn,0.0,dft,jarvis_alex,,0.1758483230767691,191.52648891733844,349.4097595214844,2.1488702
MoSnTi2,0.233,dft,jarvis_alex,,0.3239062833204,237.7595671655301,394.0820617675781,2.255841
Li2RhSi,2.196,dft,jarvis_alex,,0.4799835140786154,208.68007414553944,463.3233947753906,1.6746879
CoInLa3,7.811,dft,jarvis_alex,,1.37976070563139,66.67472247871001,192.6078338623047,5.372629
LiTcZr2,2.229,dft,jarvis_alex,,0.5039469186037955,173.69716623038045,270.9213256835937,4.917118
AlHf2Mn,0.26,dft,jarvis_alex,,0.337932551279101,187.6911381638792,313.60821533203125,1.217868
CTi2,0.118,dft,jarvis_alex,,0.2887690203906767,357.6215068229729,594.250244140625,1.4391707
CV2Zn,0.18,dft,jarvis_alex,,0.3041836761289494,322.0773334750101,557.2176513671875,3.0560389
BrCY2,0.006,dft,jarvis_alex,,0.236698277435944,275.6285422271969,313.84283447265625,1.9131584
Cr4Nb2,8.604,dft,jarvis_alex,,0.6895569095644559,248.0236379319148,397.0755310058594,7.17084
BeRh2Zr,0.0,dft,jarvis_alex,,0.1751884029343675,200.6152038469241,418.5304565429688,0.6172503
CaHg2Y,0.165,dft,jarvis_alex,,0.3475393483565412,96.57401131445772,221.87474060058597,3.3151066
NiScSn,0.357,dft,jarvis_alex,,0.3508991609043179,194.86047070543427,365.8711242675781,3.8616295
SSc2Tl,0.213,dft,jarvis_alex,,0.3438468933008961,134.43878773305158,265.5556640625,2.21438
Sc2Zr2,8.385,dft,jarvis_alex,,0.81429700421248,165.29166527020826,301.2516174316406,5.9938993
Si2Ti4,0.015,dft,jarvis_alex,,0.2485373113558875,305.9072576524221,604.713134765625,2.18776
Nb2PtRh,2.084,dft,jarvis_alex,,0.4745586658032233,208.73691482080147,382.746337890625,2.9761415
Ru2WZn,3.834,dft,jarvis_alex,,0.6085557714258643,155.79483331007447,392.7106018066406,1.6302793
Ti2V4,21.163,dft,jarvis_alex,,1.2035896934387968,217.9375965990785,395.42767333984375,9.726681
GaRu2Ti,0.987,dft,jarvis_alex,,0.3992057184460114,234.3100628760797,406.6238708496094,3.664405
OsReV2,4.196,dft,jarvis_alex,,0.5342676539557588,262.7772893799573,434.5945129394531,3.9457982
Ga2N2Ti4,0.023,dft,jarvis_alex,,0.2533603899248414,347.660651640934,611.7059326171875,2.872339
Li2Ni2Si2,0.195,dft,jarvis_alex,,0.3142193196588079,258.0324152645961,483.6636657714844,2.0803533
ScTcZr,4.468,dft,jarvis_alex,,0.6138774684385706,177.0751677539296,326.5615539550781,2.480088
RhRuScSn,0.0,dft,jarvis_alex,,0.063766988991875,243.02182541745108,386.7933044433594,0.796899
RhTi2W,0.555,dft,jarvis_alex,,0.3622273207721846,242.25797308147327,376.1500854492188,2.1945205
FeReTi2,0.229,dft,jarvis_alex,,0.3213806034817009,249.53142650137872,443.6096496582031,3.2047312
CLaSnY2,0.63,dft,jarvis_alex,,0.3870350122161043,178.95716351218329,301.3645935058594,2.5093226
BRu3Zr,0.069,dft,jarvis_alex,,0.2845244562947399,244.5264235678821,547.1788940429688,2.5028532
Be2Pt3Zn,0.001,dft,jarvis_alex,,0.2170443691880435,207.03068883790024,335.9065246582031,0.8453978
BiCY3,2.117,dft,jarvis_alex,,0.5214805395125442,144.25477178786733,327.3052062988281,3.3633044
CaRh2Zr,0.0,dft,jarvis_alex,,0.1354793297763515,186.24112297310947,278.2183532714844,1.3716866
CTi3Tl,0.086,dft,jarvis_alex,,0.2918436748213767,233.19205225142272,438.3736267089844,4.9062114
Cu2In2Ti2,0.65,dft,jarvis_alex,,0.392614688160239,169.77369413508333,356.8840637207031,6.8804955
CaLiNi2P2,1.902,dft,jarvis_alex,,0.4638923338260854,210.05685313662693,449.1772766113281,2.3820128
Co2Os2Ta2,0.072,dft,jarvis_alex,,0.2901898166870721,207.63304636195144,339.4245300292969,4.445036
Be2PtRh,0.0,dft,jarvis_alex,,0.1593873840532603,293.91561729022504,458.2521667480469,1.2541971
CuLiNiSi,0.016,dft,jarvis_alex,,0.252838124332832,255.85419938145523,422.0782165527344,2.0394905
H2NiRh,0.447,dft,jarvis_alex,,0.3592829723163132,206.02193200115863,414.7853393554688,3.8847146
AsSc2Se,0.032,dft,jarvis_alex,,0.2694356511683183,216.51758776649007,388.8257141113281,1.6825538
Nb6OsSi,4.618,dft,jarvis_alex,,0.5669250427494407,235.4865830978393,372.6389465332031,5.801626
ScZr3,4.328,dft,jarvis_alex,,0.6202758563742056,166.6099160487946,280.5124206542969,5.1402206
MoNb2Tc,0.071,dft,jarvis_alex,,0.283159307630287,266.9752320966367,396.66790771484375,2.5133784
Ag2CaY,0.059,dft,jarvis_alex,,0.3013198243225249,116.2623340928442,227.6890106201172,3.6760535
H3PbRh,4.881,dft,jarvis_alex,,0.4682092789007948,516.2989858951779,373.34674072265625,0.8927831
Pd2Tc6,0.39,dft,jarvis_alex,,0.339360236501462,273.1234976425429,481.29205322265625,4.4066157
MgSc3Zn2,0.055,dft,jarvis_alex,,0.2840677544896663,198.70086571774533,358.99755859375,6.527992
CHf2Tl,0.0,dft,jarvis_alex,,0.1980402884510943,187.5161468886842,298.1955261230469,0.8806296
LiRuScSn,1.625,dft,jarvis_alex,,0.4548102307184014,196.52195697630265,350.8026123046875,3.9918644
NbTc3Ti2,0.605,dft,jarvis_alex,,0.3613681202223241,268.2990235561023,392.3692321777344,5.2664046
CaCuLiSn,0.0,dft,jarvis_alex,,0.1562407438772641,164.10992919750788,331.4214172363281,0.9763208
B2H2Zr2,0.0,dft,jarvis_alex,,0.1677959889408803,522.9895167080396,635.7550048828125,0.97406656
Rh5Tc,1.077,dft,jarvis_alex,,0.4012693829265097,248.31185780604915,443.53070068359375,8.538948
InNbTi2,5.035,dft,jarvis_alex,,0.6190124442489434,194.72182521672772,362.4308776855469,3.8276677
Tc2TiV,0.294,dft,jarvis_alex,,0.3247664762701047,292.7031066239612,427.6811828613281,3.2478676
FePdSc2,0.0,dft,jarvis_alex,,0.144451575085695,251.42761373158632,371.1226196289063,1.0185567
AgAl2Li,0.336,dft,jarvis_alex,,0.3391709659797588,235.76235993410896,388.5835266113281,1.6184044
Al2Zn,1.779,dft,jarvis_alex,,0.4484895519398157,229.68121970287456,403.6374816894531,0.9286267
CHgSc2,1.407,dft,jarvis_alex,,0.4689932891388319,147.7146527897808,368.6492004394531,4.0010147
InNTi2,0.248,dft,jarvis_alex,,0.3135315688990476,335.33659542638924,500.8252258300781,3.210789
Sc6YZr,2.678,dft,jarvis_alex,,0.5277989533479351,175.2533381135889,317.5335388183594,16.721819
TcTi2Zn,0.526,dft,jarvis_alex,,0.3595600143474497,241.39520925149824,355.7338562011719,3.5469549
Fe2HfP2,1.336,dft,jarvis_alex,,0.4184952489753341,243.86019392613545,457.5803527832031,4.131197
AuMg2Rh,0.0,dft,jarvis_alex,,0.1649046793576594,139.7970768196482,278.1996765136719,1.6188143
LiPd2Sc,0.0,dft,jarvis_alex,,0.1539980976510239,170.4937691269938,295.2267761230469,1.7281892
Fe2HfP2,0.041,dft,jarvis_alex,,0.2729864249397263,237.1418850388348,468.1750793457031,2.3121982
CuNbPt2,0.003,dft,jarvis_alex,,0.2312129209436227,193.9484156214347,338.8861999511719,1.5837942
NPbSr3,0.029,dft,jarvis_alex,,0.2771408828133715,139.48883516142834,258.1952209472656,5.969185
B2H2Nb2,2.591,dft,jarvis_alex,,0.4282330283294467,419.2391433099315,675.394287109375,2.3043842
Re3,10.231,dft,jarvis_alex,,0.9020193137212876,165.51193747702698,392.1751098632813,2.386446
AuHLi3,1.016,dft,jarvis_alex,,0.3707898467808969,378.374322805919,340.62896728515625,1.4363837
ReTcV2,0.575,dft,jarvis_alex,,0.3523071463694277,304.70156836122186,430.0028381347656,2.8729353
AlPd2Zn,0.662,dft,jarvis_alex,,0.4057062797748496,143.17213519608558,357.7370300292969,2.149195
CdMg2Sc3,0.027,dft,jarvis_alex,,0.2698776748711566,180.8231305567933,330.8910522460937,7.371065
Co2LiP2Sr,0.054,dft,jarvis_alex,,0.2748772160720183,288.109716945959,464.4336853027344,3.1380277
Mg2Tc2,0.016,dft,jarvis_alex,,0.2535061362352963,251.71449001263625,422.2084655761719,1.08909
Ta2W2,0.259,dft,jarvis_alex,,0.3383471430611178,185.6031785928216,315.0866394042969,2.1688204
NbNiPt2,0.091,dft,jarvis_alex,,0.2989933303283769,192.31013141515936,343.6961975097656,1.5534495
Al5V2Zr,0.776,dft,jarvis_alex,,0.3845876295499017,229.4987604541828,591.4932861328125,4.9666805
PdPtRh,0.618,dft,jarvis_alex,,0.3838748030692256,185.1332875810688,317.8242492675781,5.5265603
AlTcZr2,0.032,dft,jarvis_alex,,0.2706312357708675,201.66119479446604,366.2203674316406,1.4682754
PdRhZn2,0.0,dft,jarvis_alex,,0.0941870695327277,178.31111933681183,349.1810607910156,0.8045014
CMgTcY2,0.825,dft,jarvis_alex,,0.4223528284576483,143.36901091491242,381.8691101074219,2.819326
BFe2Ga2Y,0.0,dft,jarvis_alex,,0.1793537387535451,265.0844260884812,478.6913757324219,2.7361243
N2Sn2Ti4,2.618,dft,jarvis_alex,,0.4544321418175465,317.6855378519257,459.1656188964844,5.5500884
HfMoRe,0.0,dft,jarvis_alex,,0.1962164557433713,228.23253799032224,333.4536437988281,1.6014225
Mn2NiTi3,1.44,dft,jarvis_alex,,0.4185795393151232,263.08024329750083,382.0985412597656,3.8537147
CrMnTa2,0.003,dft,jarvis_alex,,0.2271685904094334,262.8658592906728,361.6069641113281,2.9960692
Cu2P2Si2Ti2,0.015,dft,jarvis_alex,,0.2465990933394908,341.36353593985496,543.507568359375,1.7167875
Li2PtSi,2.327,dft,jarvis_alex,,0.5013717399558076,184.70344433355407,338.1089782714844,1.4755147
AgMg2Rh,0.0,dft,jarvis_alex,,0.1561468844593584,173.73502664510767,258.5015563964844,1.5221838
OsTcZr2,0.045,dft,jarvis_alex,,0.2764155593533652,221.4912803643341,353.8266906738281,3.9384367
AgMnTi2,6.791,dft,jarvis_alex,,0.70027435635281,187.588968204541,372.1979675292969,3.2071655
AlCScTi2,0.171,dft,jarvis_alex,,0.3112969533048212,245.93937889309944,625.11376953125,2.9188883
MgPt,0.0,dft,jarvis_alex,,0.1373063231512242,139.4318289580083,268.1200866699219,0.7718004
GaLiPdZn,0.686,dft,jarvis_alex,,0.4061404734920553,147.27765052399658,283.7589416503906,1.2066867
AlCrRe,0.005,dft,jarvis_alex,,0.2314699927263407,302.598388202109,472.6497192382813,1.2129252
Mn2MoTi,0.006,dft,jarvis_alex,,0.2350297192159192,320.89151432726175,485.76751708984375,0.9329063
CuRuSc2,0.003,dft,jarvis_alex,,0.2312353269198702,204.15693556320747,357.8132629394531,2.5287364
Os6W2,2.492,dft,jarvis_alex,,0.4917666476544821,215.0151233922613,434.4118957519531,7.8682804
NiTcZr2,0.68,dft,jarvis_alex,,0.3950374297808669,171.46558039785577,347.1033630371094,3.1601367
Fe2P2Zr,0.044,dft,jarvis_alex,,0.2713259782403174,275.15524541983126,579.093994140625,2.4821775
HNbRhRu2,0.393,dft,jarvis_alex,,0.3379178437865284,284.03177974708854,450.0008239746094,3.1245193
Be4LiPt,1.71,dft,jarvis_alex,,0.3942983573606998,435.3587133047874,664.8192749023438,3.0747306
Co2OsTa,0.761,dft,jarvis_alex,,0.3830994873318006,230.6410810749773,400.9240112304688,4.0046926
AlBeCo2,0.0,dft,jarvis_alex,,0.1455927137267859,324.79837267701475,658.3919677734375,4.5755453
GaMoTc,0.875,dft,jarvis_alex,,0.3881532251847228,244.99839560521968,424.0317077636719,0.9021533
Al2PdRh,0.194,dft,jarvis_alex,,0.3277929588873339,178.47990521261116,442.0317077636719,1.5862254
AlSc3,1.366,dft,jarvis_alex,,0.4288833507231108,220.13412278315573,406.2114562988281,5.442527
HgNSc2Y,0.393,dft,jarvis_alex,,0.3745296208277274,137.17469547722607,373.6525573730469,3.5704303
As2ScY,0.0,dft,jarvis_alex,,0.1181615364719775,267.4586928020873,364.210693359375,0.5556131
MoTc2Ti3,6.207,dft,jarvis_alex,,0.6333514475145937,224.7929041670081,408.25238037109375,8.553056
Rh7Y,0.982,dft,jarvis_alex,,0.4048663604381169,215.34656923700635,387.5539855957031,7.416803
Al2FeNi,0.0,dft,jarvis_alex,,0.1143548875992302,335.68903836846226,585.3154907226562,1.3077036
GaLiMg2,0.956,dft,jarvis_alex,,0.4339803090057178,144.64105648391205,358.6486511230469,1.1697669
MnRhTi2,0.0,dft,jarvis_alex,,0.1670413622391821,288.6960858720074,451.1808166503906,0.97368616
HNi3Sb,0.444,dft,jarvis_alex,,0.3624546651152892,192.4904963219504,348.7963562011719,3.3395526
Nb6Pd2,13.753,dft,jarvis_alex,,1.1344264615322817,152.92980939699248,370.4639587402344,7.4153175
BeHTi3,2.13,dft,jarvis_alex,,0.4355019844095217,316.9573847270922,491.8827209472656,2.2697902
Ni2Re,0.0,dft,jarvis_alex,,0.1556814689135062,230.98295095978628,398.9425354003906,1.4200418
ScTc2W,0.125,dft,jarvis_alex,,0.3020244095530257,239.78375610668027,397.3602600097656,3.7674463
C2Cr2Ge2V2,4.857,dft,jarvis_alex,,0.5333996496836215,304.9108586353236,588.0474853515625,6.3072557
Ru3Tc,2.836,dft,jarvis_alex,,0.4756639108268293,281.5332255767831,535.615234375,4.7429376
NbOsReTi,0.0,dft,jarvis_alex,,0.1723813210095052,269.0689629910961,387.4267883300781,2.1394236
Ba2HgTl,0.988,dft,jarvis_alex,,0.5382041082905844,60.12985451927139,116.84758758544922,3.6351144
Al2TiZn,0.0,dft,jarvis_alex,,0.1516166598003434,328.5176681482947,482.8250732421875,1.0678381
Al2C2Nb2Ti2,0.0,dft,jarvis_alex,,0.2057378767063085,374.0901351432839,651.4677124023438,2.7962573
Hf3N4Zr,12.84,dft,jarvis_alex,,0.7309232907185378,318.8740423622049,434.0580749511719,3.3329875
H2PbY2,0.008,dft,jarvis_alex,,0.2490785567901657,152.22125521639072,311.7797241210937,0.8383586
CInTi2,0.0,dft,jarvis_alex,,0.1680791686021481,336.2003554664783,531.822021484375,1.3668715
Al2ReTi3,0.392,dft,jarvis_alex,,0.3557697979292606,193.40613998799003,437.1106872558594,4.272147
HLaMnN2,10.193,dft,jarvis_alex,,0.7212519346636806,260.7499793133076,531.906005859375,2.2528653
Si2Ti2Zr2,0.785,dft,jarvis_alex,,0.376807992566456,264.0877240845499,484.9920959472656,5.9783897
MoV2W,0.767,dft,jarvis_alex,,0.3790543062811503,248.4372363366948,415.5487060546875,3.443135
MoNb2Ti,13.787,dft,jarvis_alex,,1.068257933332397,166.91643434366202,351.14923095703125,6.10854
Be6Ni2,3.32,dft,jarvis_alex,,0.4720205651881202,339.21024112186353,709.581298828125,1.7253503
GaLiY2,0.274,dft,jarvis_alex,,0.3461273584826078,165.12825115795027,287.0456237792969,2.7103164
AlRu2Zr,0.02,dft,jarvis_alex,,0.2583977633063125,230.04270214667025,439.154541015625,1.6092092
AlLiOsTa,0.795,dft,jarvis_alex,,0.3934307823468923,204.9819969633133,348.0542297363281,4.3761573
CCoLiY2,0.001,dft,jarvis_alex,,0.2188535416637008,237.4832520149326,402.68951416015625,2.7236035
HSnZr,1.114,dft,jarvis_alex,,0.4344158312159301,167.58707058005,334.38787841796875,1.2665226
NbPd2Rh,0.002,dft,jarvis_alex,,0.2269625674980053,212.5807794833789,385.1455993652344,1.3111984
Cu2P4Zr2,1.303,dft,jarvis_alex,,0.4115842998983783,260.4802313446374,452.8008117675781,2.6517308
AlZr3,2.399,dft,jarvis_alex,,0.4982821932654462,196.0326110401845,370.462646484375,3.6785529
LiS4Y3,0.786,dft,jarvis_alex,,0.402275853724905,178.33896130086745,384.0605773925781,2.7110062
Al2HgTi3,0.078,dft,jarvis_alex,,0.2855498055509864,265.4831774103937,417.28271484375,5.572628
Mo2TaV,0.618,dft,jarvis_alex,,0.3668499179294165,247.2677475095668,372.6695251464844,2.4167495
GeTcTi2,3.828,dft,jarvis_alex,,0.5314536165574164,244.254062337402,415.9273376464844,3.5495472
RhSc2Zn,0.474,dft,jarvis_alex,,0.3745846503372861,165.47624335007563,315.4696044921875,3.0455337
AlInMg2,0.639,dft,jarvis_alex,,0.3855706980920044,186.1010286236016,334.4384460449219,1.6973044
NPtTi3,2.3,dft,jarvis_alex,,0.5495324317289589,129.6237784526425,391.0947570800781,5.1453366
GaReTc,0.851,dft,jarvis_alex,,0.4001820737782851,199.0954481738331,385.0218811035156,1.6673295
AlB2Ir2,10.258,dft,jarvis_alex,,1.4382784866540712,81.89525838814627,462.519775390625,1.3349707
AlRu2Ti,0.044,dft,jarvis_alex,,0.2718923121529116,266.2288403506807,457.3524475097656,2.4420586
CrRuV2,0.908,dft,jarvis_alex,,0.3760838160194146,309.2940217788239,480.4552917480469,2.2754235
AlFe2Si,0.0,dft,jarvis_alex,,0.1727714287616356,340.2033940572455,651.8336791992188,3.3996544
LiMg2Pt,0.007,dft,jarvis_alex,,0.2458207595733577,178.13124451707273,287.0290222167969,1.561599
Al2NbRh,0.015,dft,jarvis_alex,,0.2521398039932874,253.36290553528144,477.6741943359375,1.1951262
CrHOs,0.3,dft,jarvis_alex,,0.3242233462019203,302.99082392020034,471.74017333984375,1.5157886
OsTa2Tc,7.975,dft,jarvis_alex,,0.7937571255578602,165.7489031270007,358.9584045410156,2.7710328
Pd2VZn,0.885,dft,jarvis_alex,,0.4027275731527089,199.60405529686267,356.1842956542969,2.0952053
NaS2Zr,7.452,dft,jarvis_alex,,0.8804326649502333,124.65499458825391,373.4983825683594,2.1042135
Ni2PtZr,0.002,dft,jarvis_alex,,0.2287703160877446,189.4287649442143,371.49847412109375,3.0759609
Rh2W2,0.829,dft,jarvis_alex,,0.3958210885478334,206.78758339039325,418.4310302734375,1.2341061
Be4NbTa,3.774,dft,jarvis_alex,,0.504466075601587,292.49999794875265,584.838134765625,5.1173086
Nb2OsW,0.106,dft,jarvis_alex,,0.2969915647186656,239.67443046274565,365.9131164550781,1.404366
LiSc2Tc,0.333,dft,jarvis_alex,,0.3463705819308878,199.47036278100515,345.5926513671875,2.03386
Mo3Tc,15.67,dft,jarvis_alex,,1.0233335556951848,205.0435935879552,433.0122375488281,4.0100474
HfNiPt2,0.0,dft,jarvis_alex,,0.2073383716310024,176.7265735270072,308.6228942871094,1.9084871
NbNiTi2,8.838,dft,jarvis_alex,,0.8323261035961736,165.7616835215197,335.6257629394531,4.4009547