jid,formula,formation_energy_per_atom,optb88vdw_bandgap,mbj_bandgap,ehull,spacegroup_number,natoms,volume,bulk_modulus_kv,shear_modulus_gv
JVASP-98213,SiBi12O20,-1.52361,2.39,3.254,0.0,,,,,
JVASP-65013,BeCuPt,-0.19316,0.0,na,0.1964,,,,,
JVASP-21525,RbZnF3,-2.71621,4.372,6.745,0.0,,,,,
JVASP-42326,Fe7O3F9,-1.76316,0.0,na,0.0746,,,,,
JVASP-98032,Nd2Sn3,-0.7332,0.0,na,0.0,,,,,
JVASP-98071,Zn2TeBr2O3,-1.18952,3.254,na,0.0,,,,,
JVASP-65434,BaPtRh2,0.19008,0.0,na,0.6222,,,,,
JVASP-65504,BaHf2Ru,0.02221,0.0,0.0,0.4338,,,,,
JVASP-15434,Cu2GeSe3,-0.23883,0.0,na,0.0117,,,,,
JVASP-90724,Li2ZnSi,-0.20475,0.0,na,0.1069,,,,,
JVASP-16936,SbO2,-1.12883,0.0,0.0,0.3723,,,,,
JVASP-89916,Ta2N,-0.99844,0.0,na,0.0,,,,,
JVASP-97414,Tb3Si2Cl5O6,-2.91753,4.696,na,0.0019,,,,,
JVASP-46260,Li2Ni3BiO8,-1.21886,0.0,na,0.1249,,,,,
JVASP-88199,YCu3Se2ClO8,-1.31142,0.073,na,0.0,,,,,
JVASP-62426,YbAu3,-0.77682,0.0,na,0.0,,,,,
JVASP-91621,SrCd2Pd,-0.54594,0.0,na,0.0,,,,,
JVASP-48669,V2OF5,-2.92315,0.0,0.0,0.0329,,,,,
JVASP-14656,RhPb2,-0.05267,0.0,0.0,0.0,,,,,
JVASP-98784,Pr3Si2Cl3O7,-3.12844,4.919,na,0.0,,,,,
JVASP-14578,PrOs2,-0.11431,0.0,na,0.0272,,,,,
JVASP-88622,NaPH2O4,-1.81716,5.432,na,0.0194,,,,,
JVASP-65193,BePOs,-0.10884,0.0,0.235,0.1508,,,,,
JVASP-92164,La2BiN,-1.38541,0.0,na,0.0,,,,,
JVASP-65061,ZrBeTe4,0.93315,0.0,na,1.5526,,,,,
JVASP-3540,K2ReCl6,-1.35419,0.854,na,0.0,,,,,
JVASP-42242,FeOF,-1.69343,0.0,0.0,0.1475,,,,,
JVASP-60913,ZrAu4,-0.46224,0.0,na,0.0,,,,,
JVASP-90358,Na5CoSO2,-1.23093,0.727,na,0.0365,,,,,
JVASP-86220,Ba3Al3Ga2,-0.42396,0.0,na,0.0,,,,,
JVASP-90471,SrZn,-0.27978,0.0,na,0.0,,,,,
JVASP-98536,KCN3O2,-0.3425,3.227,na,0.6241,,,,,
JVASP-85876,LaCu5,-0.1813,0.0,na,0.0009,,,,,
JVASP-98331,CuH4SeO5,-0.88968,0.022,na,0.0,,,,,
JVASP-61494,TbB2Ir3,-0.67309,0.0,na,0.0,,,,,
JVASP-62267,TlZnAsO4,-1.35764,3.237,4.334,0.0,,,,,
JVASP-98895,Re3S4Cl,-0.63278,1.575,na,0.0,,,,,
JVASP-14846,Ca,0.01449,0.0,na,0.0,,,,,
JVASP-98415,KAlH2CO5,-1.97116,5.378,7.49,0.0,,,,,
JVASP-48823,Fe4O3F5,-1.79216,0.0,na,0.0981,,,,,
JVASP-43776,Ge2N2O,-0.51685,2.363,3.961,0.0796,,,,,
JVASP-90595,Mg3Ga,-0.0881,0.0,na,0.0,,,,,
JVASP-86988,Li3P,-0.78963,0.901,1.283,0.0,,,,,
JVASP-87241,LaGaSe2O,-1.95533,1.524,na,0.0,,,,,
JVASP-86166,ZrTe,-0.89023,0.0,na,0.0294,,,,,
JVASP-97709,ThTe2O6,-2.16379,3.492,na,0.0,,,,,
JVASP-42911,LiMnSbO4,-1.67235,0.0,0.0,0.1938,,,,,
JVASP-42959,Li4Mn3SbO8,-1.81229,0.0,na,0.2026,,,,,
JVASP-89990,UAlPt,-0.71953,0.0,na,0.0,,,,,
JVASP-22704,Ca3CdO4,-2.76448,2.818,4.68,0.0093,,,,,
JVASP-5533,Sc2NCl2,-2.14748,0.0,na,0.0105,,,,,
JVASP-97323,LaSnPd,-0.99044,0.0,na,0.0,,,,,
JVASP-97783,CaTi4P6O24,-2.74249,2.859,na,0.0,,,,,
JVASP-89056,NiAs2O6,-1.13498,0.884,na,0.0,,,,,
JVASP-87131,NiO,-0.63387,0.0,na,0.1285,,,,,
JVASP-86919,Hf2NiP,-0.97026,0.0,na,0.0,,,,,
JVASP-45913,LiV3Zn2O8,-2.25605,0.0,na,0.023,,,,,
JVASP-64979,TaMnBe2,0.09335,0.0,na,0.3589,,,,,
JVASP-62588,SrAl2B2O7,-3.05066,4.755,na,0.0302,,,,,
JVASP-98033,LaIO,-3.01427,3.245,na,0.0,,,,,
JVASP-65154,BeInCl4,0.45216,0.0,na,1.7204,,,,,
JVASP-87927,EuFe2As2,-0.64268,0.0,na,0.0,,,,,
JVASP-47539,CoSnO3,-1.29831,0.0,na,0.1678,,,,,
JVASP-65270,BeNb4Ni,0.6378,0.0,na,0.7936,,,,,
JVASP-15774,TbCuAs2,-0.83315,0.0,na,0.0,,,,,
JVASP-86862,Pr3MnBi5,-0.55767,0.0,na,0.1157,,,,,
JVASP-97662,NaLiH4C2O5,-1.29845,4.582,na,0.0597,,,,,
JVASP-65305,BeReTc,-0.12282,0.0,na,0.0568,,,,,
JVASP-97840,BaNa2V2CuO8,-2.38666,0.547,na,0.0,,,,,
JVASP-65014,BeBi4Ru,1.30693,0.0,na,1.3969,,,,,
JVASP-65507,BaZr2Tc,0.06181,0.0,na,0.1866,,,,,
JVASP-48322,Fe3O2F4,-1.7975,0.0,na,0.1093,,,,,
JVASP-86049,RhN2,0.22351,0.0,na,0.2338,,,,,
JVASP-97367,LaP2,-1.20528,0.692,na,0.0,,,,,
JVASP-97470,Si3N4,-0.4503,1.431,2.086,0.7422,,,,,
JVASP-65227,SrBeBi4,0.22736,0.0,na,0.5527,,,,,
JVASP-97896,GaH13C4N2,-0.1043,3.527,na,0.143,,,,,
JVASP-28364,Cr3N2,-0.33309,0.0,0.0,0.2379,,,,,
JVASP-92215,LiErS2,-2.01228,2.042,2.801,0.009,,,,,
JVASP-85679,LiH2IO,-1.15807,3.816,na,0.0159,,,,,
JVASP-88736,CaMgSi2O6,-3.05788,5.031,na,0.0528,,,,,
JVASP-64902,ScBeMo4,0.38366,0.0,0.0,0.4573,,,,,
JVASP-98264,SnH8C4O4,-0.56195,4.314,na,0.169,,,,,
JVASP-61260,DyB2Ru,-0.60432,0.0,0.0,0.0,,,,,
JVASP-88400,KGe2P3O12,-2.12463,3.997,na,0.0,,,,,
JVASP-61741,Hf6Al16Pd7,-0.68943,0.0,na,0.0,,,,,
JVASP-42555,MnOF,-2.10959,0.0,na,0.0,,,,,
JVASP-15637,AlVFe2,-0.46405,0.0,0.0,0.0,,,,,
JVASP-86792,Na2BeH4,-0.32349,4.773,7.031,0.0,,,,,
JVASP-14628,Be,0.10784,0.0,0.0,0.0,,,,,
JVASP-15480,MnAlNi2,-0.36932,0.0,0.0,0.03,,,,,
JVASP-90127,NbReSi,-0.42274,0.0,na,0.0,,,,,
JVASP-15001,SrSi,-0.53478,0.0,0.0,0.0,,,,,
JVASP-62744,TbNi12B6,-0.37499,0.0,na,0.0,,,,,
JVASP-98900,BaCaC2O6,-2.41086,4.737,na,0.0,,,,,
JVASP-1402,SmMg,-0.09442,0.0,0.0,0.0,,,,,
JVASP-85815,Fe3O4,-1.24501,0.0,na,0.1358,,,,,
JVASP-91758,Pd3N,0.29479,0.0,na,0.2987,,,,,
JVASP-97968,LaP3O9,-2.62716,4.916,na,0.0,,,,,
JVASP-16115,Sc3RuC4,-0.57349,0.0,0.0,0.0,,,,,
JVASP-61495,CaAu5,-0.45169,0.0,na,0.0,,,,,
JVASP-3846,BPS4,-0.31169,1.932,2.811,0.0,,,,,
JVASP-98134,Ba2YCu4O6,-1.70542,0.0,na,0.2545,,,,,
JVASP-86690,U6Mn,0.0041,0.0,na,0.0205,,,,,
JVASP-98785,K2CS2O6F2,-1.62251,5.733,na,0.1604,,,,,
JVASP-64941,Be2SbPt,0.24011,0.0,0.0,0.7247,,,,,
JVASP-65435,BaHf2Cl,0.33769,0.0,0.0,1.3487,,,,,
JVASP-85595,BaNdFe2O5,-2.37492,0.0,na,0.0208,,,,,
JVASP-98336,Mg2Cu2P2H12O15,-1.53693,0.217,na,0.0,,,,,
JVASP-90825,NaN,0.02137,0.0,na,0.1264,,,,,
JVASP-91954,RbMg6Fe,0.30983,0.0,na,0.3141,,,,,
JVASP-62041,LiAlH4,-0.24754,4.884,6.731,0.0035,,,,,
JVASP-86288,Tb2Al4NiGe2,-0.6621,0.0,na,0.0,,,,,
JVASP-14588,Ir,0.0,0.0,0.0,0.0,,,,,
JVASP-43546,Ti2O3,-3.03661,0.0,na,0.096,,,,,
JVASP-90183,YbCdGe,-0.60945,0.0,na,0.0,,,,,
JVASP-42742,LiMnSiO4,-2.31739,1.193,na,0.1106,,,,,
JVASP-90550,NdCoSb2,-0.62555,0.0,na,0.0563,,,,,
JVASP-65381,BaCuP2,-0.17531,0.0,0.0,0.545,,,,,
JVASP-18782,TiPt8,-0.45361,0.0,na,0.0,,,,,
JVASP-98601,Zr4Fe2H2O,-0.85813,0.0,na,0.0904,,,,,
JVASP-62432,UAlIr,-0.71185,0.0,na,0.0361,,,,,
JVASP-91533,CaNiBN,-1.01927,0.0,na,0.0,,,,,
JVASP-5347,ZrCl,-1.35954,0.0,0.0,0.0007,,,,,
JVASP-98214,CrPb2O5,-1.72306,1.571,na,0.0,,,,,
JVASP-16016,PrCuSi,-0.60805,0.0,na,0.0,,,,,
JVASP-42824,LiTiMnO4,-2.54123,0.0,0.0,0.0385,,,,,
JVASP-62270,Dy3AlCoS7,-1.7137,0.0,na,0.0436,,,,,
JVASP-88027,Sr3CuIrO6,-2.1142,0.0,na,0.0,,,,,
JVASP-14057,Yb3Si5,-0.43516,0.0,0.0,0.0233,,,,,
JVASP-97784,Ba4Ir3O10,-1.96711,0.0,na,0.0,,,,,
JVASP-88859,Si5P6O25,-2.47383,5.92,na,0.0023,,,,,
JVASP-90869,FeB,-0.34885,0.0,na,0.0,,,,,
JVASP-90058,ScPIr,-1.19416,0.0,na,0.0,,,,,
JVASP-87061,LiCeO2,-2.96495,0.0,0.0,0.0364,,,,,
JVASP-91667,CoGe,0.44049,0.0,na,0.6334,,,,,
JVASP-90781,MgTi,0.26019,0.0,na,0.2602,,,,,
JVASP-85727,TbGa6Fe6,-0.29324,0.0,na,0.0,,,,,
JVASP-1363,TmN,-2.04937,0.268,1.256,0.0,,,,,
JVASP-90249,Y2CuGe6,-0.43239,0.0,na,0.0525,,,,,
JVASP-65542,BaCdW2,1.48983,0.0,0.0,1.9841,,,,,
JVASP-97539,PHOF2,-1.86874,6.997,na,0.0,,,,,
JVASP-91805,TmSn3,-0.33384,0.0,na,0.0757,,,,,
JVASP-65229,Mg4BeNb,0.69816,0.0,na,0.761,,,,,
JVASP-98537,VBiO4,-2.12335,2.341,na,0.0175,,,,,
JVASP-65015,BeTlCl4,0.39757,0.0,na,1.5446,,,,,
JVASP-64980,TiBeZn,0.20676,0.0,0.0,0.4314,,,,,
JVASP-86393,ErCoSi2,-0.73584,0.0,na,0.0,,,,,
JVASP-48407,Na6NiO4,-1.25093,0.0,0.0,0.1515,,,,,
JVASP-48671,Li3Co2Si2O8,-2.1277,0.0,0.0,0.1237,,,,,
JVASP-98267,Ti2FeP2O10,-2.54741,0.244,na,0.0,,,,,
JVASP-47990,Li2MnF4,-2.78265,2.375,na,0.0699,,,,,
JVASP-107768,Cu2NiSb,0.16617,0.0,0.0,0.2853,,,,,
JVASP-65194,BeInCo4,0.26336,0.0,0.0,0.3766,,,,,
JVASP-97415,Sr5B3ClO9,-3.07647,4.005,na,0.0,,,,,
JVASP-22592,Cu2WS4,-0.50185,0.901,1.696,0.0752,,,,,
JVASP-91622,PrCoSb2,-0.62624,0.0,na,0.0575,,,,,
JVASP-86745,TmAlRh,-0.98803,0.0,na,0.0,,,,,
JVASP-91904,BaMg6Mo,0.23927,0.0,na,0.3178,,,,,
JVASP-48824,VOF,-2.70392,0.0,na,0.0175,,,,,
JVASP-97841,Sr2CrCuSO3,-2.21284,0.286,na,0.0346,,,,,
JVASP-43782,V3O4F2,-2.67968,0.0,na,0.0298,,,,,
JVASP-98644,Li2P2H2O7,-2.06891,5.225,na,0.0,,,,,
JVASP-65271,HfZrBe,0.19614,0.0,0.0,0.3153,,,,,
JVASP-60915,Ca4MgB4H6C2O18,-2.26432,4.684,6.957,0.0,,,,,
JVASP-43095,CrSbO4,-1.77457,0.0,na,0.0316,,,,,
JVASP-12015,PdSeO3,-0.67419,1.154,na,0.006,,,,,
JVASP-89918,V2H2O5,-1.98747,0.0,na,0.0509,,,,,
JVASP-98072,Cu4Te5Cl4O12,-0.9195,0.126,na,0.0,,,,,
JVASP-65155,BeVSi4,0.56655,0.0,0.0,0.7384,,,,,
JVASP-14759,CrS,-0.52631,0.0,0.0,0.1091,,,,,
JVASP-61264,NaFeBP2H3O10,-1.89188,0.008,0.307,0.0077,,,,,
JVASP-87120,TaFeTe3,-0.23253,0.0,na,0.0354,,,,,
JVASP-88203,Na3AsS3,-0.96668,2.541,na,0.0,,,,,
JVASP-97368,Pb4IF7,-2.2872,2.982,na,0.0,,,,,
JVASP-62904,Cd3B2O6,-1.85211,1.648,3.578,0.0,,,,,
JVASP-50700,LiCuPO4,-1.88553,0.477,na,0.0445,,,,,
JVASP-65306,Sr4ZrBe,1.0727,0.0,na,1.1207,,,,,
JVASP-42327,Fe4O3F5,-1.79525,0.0,na,0.0951,,,,,
JVASP-98419,CuHIO4,-0.6051,0.169,na,0.0,,,,,
JVASP-18616,Li2SbAu,-0.54867,0.0,0.0,0.0178,,,,,
JVASP-92165,Nd2BiN,-1.27161,0.0,na,0.0125,,,,,
JVASP-90359,BaSm2CoO5,-2.88799,0.0,na,0.0296,,,,,
JVASP-65508,BaZrCu2,0.21181,0.0,0.0,0.3562,,,,,
JVASP-22705,Sr4Sb2O,-1.73606,1.011,1.445,0.0,,,,,
JVASP-64942,BeVPd4,0.3587,0.0,na,0.7431,,,,,
JVASP-97900,Ba2U2O7,-3.49911,0.468,na,0.0,,,,,
JVASP-97663,H3ClO5,-0.39021,5.346,na,0.1122,,,,,
JVASP-98483,Sm3Si2ClO8,-3.38278,4.401,na,0.0,,,,,
JVASP-90725,Tc3B,-0.23443,0.0,na,0.0,,,,,
JVASP-62754,PrB2C2,-0.33247,0.0,na,0.1383,,,,,
JVASP-64903,Be2NiMo,0.0346,0.0,na,0.3788,,,,,
JVASP-85302,K2SnBr6,-1.24105,1.568,2.661,0.0,,,,,
JVASP-85481,Ca2FeWO6,-2.60945,0.365,na,0.071,,,,,
JVASP-90596,MgGa,0.43479,0.0,na,0.5738,,,,,
JVASP-91574,KCrO2,-1.98568,1.235,na,0.0,,,,,
JVASP-86111,CaAlAu,-0.78892,0.0,na,0.0,,,,,
JVASP-98901,SrTeO3,-2.09741,3.172,na,0.0209,,,,,
JVASP-65382,BaZr2Tc,0.0618,0.0,na,0.1866,,,,,
JVASP-98786,KLuP2O7,-2.83977,5.151,na,0.0,,,,,
JVASP-97970,PuTe2,-1.09425,0.0,na,0.0,,,,,
JVASP-42243,Li2VP2HO8,-2.29268,0.014,0.0,0.0,,,,,
JVASP-89063,EuAl2Ge2,-0.48848,0.0,na,0.0,,,,,
JVASP-62275,UCu4Au,-0.06022,0.0,na,0.0238,,,,,
JVASP-14792,Ta2Co,-0.26389,0.0,0.0,0.0,,,,,
JVASP-97613,Ba7Ir6O19,-1.89481,0.0,na,0.0007,,,,,
JVASP-97711,BaTm2CoO5,-3.00707,0.0,na,0.0591,,,,,
JVASP-28366,In2Se3,-0.47992,0.0,0.742,0.0,,,,,
JVASP-87129,FeCoO2,-0.84941,0.0,na,0.3009,,,,,
JVASP-97471,Yb2Ag7,-0.34297,0.0,na,0.0,,,,,
JVASP-98142,PC2S2N3,0.08637,3.127,na,0.1963,,,,,
JVASP-97325,Na2ZnGe,-0.22728,0.0,0.059,0.0,,,,,
JVASP-86991,KZnAs,-0.54483,0.318,na,0.0,,,,,
JVASP-98605,Co5Se4Cl2O12,-0.78608,0.025,na,0.0732,,,,,
JVASP-48323,Li5MnO3F,-2.15209,0.806,na,0.0,,,,,
JVASP-14847,Si,0.16663,0.0,0.0,0.0,,,,,
JVASP-107769,Ce2ZrO6,-3.66136,1.895,na,0.0301,,,,,
JVASP-85382,Li4CO4,-1.86582,5.552,na,0.1825,,,,,
JVASP-61762,HoB2Ir3,-0.67576,0.0,na,0.0,,,,,
JVASP-15435,ErMn2Si2,-0.56408,0.0,0.0,0.0,,,,,
JVASP-62434,Na4BeAlSi4ClO12,-2.76184,4.766,7.651,0.0,,,,,
JVASP-91711,NiPbF6,-1.91101,0.062,na,0.033,,,,,
JVASP-90472,BaNd2NiO5,-2.80174,0.0,na,0.0732,,,,,
JVASP-85938,VS2N3Cl2,-0.298,0.649,na,0.2675,,,,,
JVASP-65017,BeNbGa4,0.33016,0.0,na,0.5311,,,,,
JVASP-61501,NaCaAsO4,-2.24381,3.762,6.013,0.012,,,,,
JVASP-62045,AuBr,-0.06992,1.87,2.702,0.0186,,,,,
JVASP-98216,CaCrO3,-2.66629,0.0,na,0.0,,,,,
JVASP-97842,SrV2P4O14,-2.4942,0.008,na,0.0,,,,,
JVASP-5536,Cu2SO4,-0.94091,1.546,1.632,0.0023,,,,,
JVASP-65437,BaMoPt2,-0.1249,0.0,0.0,0.4966,,,,,
JVASP-65543,BaZnBi2,-0.26127,0.0,na,0.2772,,,,,
JVASP-42557,Mn3O4F2,-1.99576,0.0,0.0,0.0,,,,,
JVASP-65272,BeGa4Mo,0.41159,0.0,na,0.5006,,,,,
JVASP-98340,VH10SO10,-1.25056,1.489,na,0.0062,,,,,
JVASP-65195,HfScBe,0.21979,0.0,na,0.3414,,,,,
JVASP-98540,OsO2F3,-1.46972,0.595,na,0.0,,,,,
JVASP-98034,C2O3F2,-1.33586,5.156,na,0.1591,,,,,
JVASP-86457,La2SO2,-3.40798,3.096,3.598,0.0,,,,,
JVASP-43433,Li2NbFe3O8,-1.90083,0.0,na,0.0959,,,,,
JVASP-17252,CrO2,-1.89203,0.0,0.0,0.2192,,,,,
JVASP-65230,Li4BePd,0.08007,0.0,0.0,0.3233,,,,,
JVASP-60918,FeB2O4,-2.12612,0.035,na,0.0315,,,,,
JVASP-97369,BaNb2O6,-2.98175,2.48,na,0.0,,,,,
JVASP-65156,BeCd4Ni,0.62853,0.0,na,0.791,,,,,
JVASP-98073,PtCI2O,-0.38382,1.46,na,0.0887,,,,,
JVASP-65307,BeTcPb4,1.27114,0.0,na,1.3259,,,,,
JVASP-97786,BaTi2P4O14,-2.64918,0.0,na,0.0,,,,,
JVASP-88635,CaAl2SiO6,-3.26753,4.974,na,0.0227,,,,,
JVASP-86221,ErRu2,-0.3873,0.0,na,0.0,,,,,
JVASP-64981,BePd4Se,0.39383,0.0,na,0.7524,,,,,
JVASP-97417,Ba3Sb4O,-1.29798,0.301,na,0.0,,,,,
JVASP-3543,BaIF,-3.05209,4.038,4.994,0.0,,,,,
JVASP-91859,LiMnO2,-2.01575,0.0,na,0.0234,,,,,
JVASP-87243,Sr5B3BrO9,-3.01995,4.223,na,0.0025,,,,,
JVASP-52568,PdO2,-0.20974,0.0,0.0,0.2394,,,,,
JVASP-18828,PrSi2Ag2,-0.407,0.0,na,0.0,,,,,
JVASP-97712,Rb2CdP2Se6,-0.63175,1.636,na,0.0,,,,,
JVASP-64944,BeVCl4,0.91429,0.0,na,2.2626,,,,,
JVASP-90129,SrBr2O6,-0.46544,0.692,na,0.2908,,,,,
JVASP-15638,USi2Os2,-0.48926,0.0,na,0.0,,,,,
JVASP-61265,TbNi2B2,-0.56966,0.0,0.0,0.0,,,,,
JVASP-48408,Li5Ti2V3O10,-2.62548,0.0,na,0.0279,,,,,
JVASP-88031,CrO3,-1.70512,1.866,na,0.0005,,,,,
JVASP-97901,NaH2CSO4F3,-1.01855,2.906,na,0.6161,,,,,
JVASP-86289,AuBr,-0.06958,1.871,na,0.0189,,,,,
JVASP-97972,LiAlGe2O6,-2.26997,3.412,na,0.0,,,,,
JVASP-86615,Li2UMo2O10,-2.52498,2.557,na,0.0,,,,,
JVASP-91955,SrMg6Fe,0.19692,0.0,na,0.2576,,,,,
JVASP-91759,HfNi2Sb,-0.50734,0.0,na,0.0144,,,,,
JVASP-97666,MgP2H12O11,-1.43717,5.813,na,0.0107,,,,,
JVASP-88739,KLaSiS4,-1.59727,2.594,na,0.0,,,,,
JVASP-21527,TlAsS2,-0.31884,1.581,2.156,0.0,,,,,
JVASP-107770,Cd4Te3Se,-0.45259,0.18,na,0.0039,,,,,
JVASP-19869,PuCo2,-0.06171,0.0,0.0,0.1084,,,,,
JVASP-48674,Na2FeO3,-1.63649,0.682,na,0.0309,,,,,
JVASP-42826,LiVGeO5,-2.16251,2.091,2.406,0.0579,,,,,
JVASP-14878,TaN,-0.98618,0.0,na,0.3344,,,,,
JVASP-87062,ZrCoP,-1.15273,0.0,0.0,0.0,,,,,
JVASP-64904,KTaBe2,1.45026,0.0,na,1.6459,,,,,
JVASP-18402,MoH,0.49191,0.0,0.0,0.4926,,,,,
JVASP-86167,Na6ZnSn2,-0.22063,0.0,na,0.0,,,,,
JVASP-90184,PrAlCu,-0.40585,0.0,na,0.0,,,,,
JVASP-97540,ZnH8C4O8,-0.88685,2.564,na,0.1381,,,,,
JVASP-62756,BN,-1.38422,4.436,6.115,0.0046,,,,,
JVASP-98787,Nd4Ga2O9,-3.11301,3.549,na,0.0075,,,,,
JVASP-90551,Na2BiAu,-0.40778,0.387,na,0.0,,,,,
JVASP-98645,MnH6O3F3,-1.47866,0.42,na,0.0,,,,,
JVASP-65509,BaCa2Ir,0.04177,0.0,0.0,0.2649,,,,,
JVASP-86518,KCBrN2O4,-0.43198,2.017,2.426,0.5443,,,,,
JVASP-22593,K2MnF6,-2.64679,0.0,0.0,0.2009,,,,,
JVASP-90826,CeCuSi2,-0.52449,0.0,na,0.0242,,,,,
JVASP-86866,KIn9Ni2,-0.12903,0.0,na,0.0,,,,,
JVASP-65383,BaIr2Pd,0.20068,0.0,0.0,0.5134,,,,,
JVASP-62276,Mn3Al,-0.04196,0.0,0.0,0.0684,,,,,
JVASP-19858,TbZn,-0.37868,0.0,0.0,0.0,,,,,
JVASP-15002,MnP,-0.56433,0.0,0.0,0.0,,,,,
JVASP-98144,BaLa2MnS5,-1.87171,0.0,na,0.0286,,,,,
JVASP-98420,Ti3Zn3N,-0.76648,0.0,na,0.0,,,,,
JVASP-65545,Ba2YTi,0.69061,0.0,0.0,0.6906,,,,,
JVASP-85877,Zr3Rh5,-0.84712,0.0,na,0.0,,,,,
JVASP-91534,CeFeSb2,-0.52883,0.0,na,0.0916,,,,,
JVASP-65196,Ca4TiBe,0.9371,0.0,na,1.0059,,,,,
JVASP-97614,La5Sn3Cl,-1.15086,0.0,na,0.0,,,,,
JVASP-97370,LiGaBr4,-1.14437,3.114,na,0.0,,,,,
JVASP-88863,Te7As5I,-0.0079,0.4,na,0.0222,,,,,
JVASP-65273,BeCd4Mo,0.85685,0.0,na,0.9371,,,,,
JVASP-12036,CuSe,-0.08099,0.0,na,0.0533,,,,,
JVASP-90642,KCoO2,-1.33421,0.0,0.0,0.0724,,,,,
JVASP-89320,CdHgSe4C4N4,0.30667,1.982,2.97,0.3994,,,,,
JVASP-47992,Li2Mn3F8,-2.55737,1.955,na,0.0854,,,,,
JVASP-98035,LaAsO4,-2.54147,3.997,na,0.0,,,,,
JVASP-97326,Zr5Re24,-0.25231,0.0,na,0.0,,,,,
JVASP-98342,VH10SO10,-0.96604,2.315,na,0.2907,,,,,
JVASP-62598,NaBOF2,-2.86504,6.562,na,0.0,,,,,
JVASP-88401,Co2As,-0.09279,0.0,na,0.0921,,,,,
JVASP-65018,ScBeSn,0.02229,0.0,0.0,0.4437,,,,,
JVASP-90870,PrMnSi2,-0.54387,0.0,na,0.0,,,,,
JVASP-5353,AlPS4,-0.62133,2.48,3.395,0.0184,,,,,
JVASP-65308,Sc4BeZn,0.52877,0.0,na,0.7079,,,,,
JVASP-48825,Li3NiO2F2,-2.20121,0.187,na,0.1341,,,,,
JVASP-90252,DyCdGa,-0.52584,0.0,na,0.0,,,,,
JVASP-43789,Y2O3,-3.79336,2.867,na,0.0673,,,,,
JVASP-86794,ZrIr,-0.9663,0.0,na,0.0,,,,,
JVASP-42743,Co2O3F,-1.27174,0.0,na,0.029,,,,,
JVASP-86691,Er3CoSi3,-0.77629,0.0,na,0.0009,,,,,
JVASP-86746,Er5BiAu2,-0.32885,0.0,na,0.4159,,,,,
JVASP-90782,SrMg3,-0.04532,0.0,na,0.0752,,,,,
JVASP-65232,BePdPb4,0.79799,0.0,na,0.9848,,,,,
JVASP-62060,CeAlCu,-0.34374,0.0,na,0.0009,,,,,
JVASP-61502,SrCu2B2O6,-2.04861,0.036,na,0.072,,,,,
JVASP-62437,B4W,0.35011,0.0,na,0.6357,,,,,
JVASP-14589,Co,0.02093,0.0,na,0.0,,,,,
JVASP-86052,Y3Ni4B4C3,-0.59639,0.0,na,0.0,,,,,
JVASP-42244,Na6FeO4,-1.35576,0.0,na,0.0967,,,,,
JVASP-89992,CrNiP,-0.43816,0.0,na,0.0241,,,,,
JVASP-87122,Ba3NaN,-0.34958,0.0,na,0.0034,,,,,
JVASP-14629,Ca,0.01475,0.0,0.0,0.0,,,,,
JVASP-91907,RbMg6Mo,0.40844,0.0,na,0.4122,,,,,
JVASP-1405,CaO,-3.27314,3.742,5.29,0.0,,,,,
JVASP-90059,YbCdSn,-0.57632,0.0,na,0.0,,,,,
JVASP-98541,AgCN3O2,0.16914,2.124,na,0.7406,,,,,
JVASP-65440,BaMo2Br,0.96241,0.0,0.0,1.8455,,,,,
JVASP-89067,LaZnSn,-0.7089,0.0,na,0.0,,,,,
JVASP-98902,Ca5P6Pd6,-1.03099,0.0,na,0.0,,,,,
JVASP-62906,BN,-1.24634,1.613,3.238,0.1425,,,,,
JVASP-98268,Sc3RhC4,-0.6079,0.0,0.0,0.0,,,,,
JVASP-107771,Ce2Al6CuAu,-0.55828,0.0,na,0.0,,,,,
JVASP-42329,Li5V2Ni3O10,-1.93187,0.234,na,0.1136,,,,,
JVASP-18783,UPt2,-0.78084,0.0,na,0.0,,,,,
JVASP-3849,AuI,-0.02297,1.404,2.121,0.0,,,,,
JVASP-65619,BaHgW2,1.57758,0.0,0.0,2.1136,,,,,
JVASP-91712,PrNiGe2,-0.74502,0.0,na,0.0,,,,,
JVASP-87838,Sm3CrSe6,-1.61508,0.107,na,0.0,,,,,
JVASP-65584,BaNa2Ge,0.01277,0.0,0.0,0.354,,,,,
JVASP-65157,ScBeFe4,-0.05068,0.0,0.0,0.1842,,,,,
JVASP-98647,CaV2P2H8O14,-1.90234,0.799,na,0.0,,,,,
JVASP-97787,Co2SiO4,-1.66989,0.0,na,0.1287,,,,,
JVASP-22565,SnO,-1.42902,0.507,1.044,0.0108,,,,,
JVASP-92216,LiDySe2,-1.76423,1.622,na,0.017,,,,,
JVASP-97973,MgSiO3,-3.02705,4.836,na,0.0,,,,,
JVASP-87928,EuMn2P2,-0.84145,0.0,0.0,0.0,,,,,
JVASP-86921,EuTaO4,-3.49592,4.039,5.282,0.0,,,,,
JVASP-12165,NdIO,-2.84381,3.679,4.76,0.0,,,,,
JVASP-97372,Na2BeO2,-2.14342,2.981,na,0.0,,,,,
JVASP-97472,YbCu9Sn4,-0.12517,0.0,na,0.0134,,,,,
JVASP-61768,Tb2Au,-0.66629,0.0,0.0,0.0,,,,,
JVASP-98484,TbMnO3,-2.8773,0.0,0.0,0.0,,,,,
JVASP-98217,Co2P2O7,-1.73777,0.0,na,0.0,,,,,
JVASP-65197,BeCd4Se,0.494,0.0,na,0.8107,,,,,
JVASP-97845,Ag13OsO6,-0.34511,0.0,na,0.0,,,,,
JVASP-65385,BaBeGa2,0.06215,0.0,na,0.4599,,,,,
JVASP-65510,BaNiPd2,0.01473,0.0,na,0.5017,,,,,
JVASP-97715,LiBH15C5NO3,-0.35515,4.262,na,0.304,,,,,
JVASP-42559,Na4CrO3,-1.52519,0.411,na,0.0718,,,,,
JVASP-44617,Li2Fe3SnO8,-1.63005,0.0,0.0,0.1147,,,,,
JVASP-98606,SnSO4,-1.46124,3.919,4.828,0.0,,,,,
JVASP-1699,ThSbRh,-1.04043,0.787,0.75,0.0,,,,,
JVASP-14156,LiYF4,-3.97747,8.15,na,0.0,,,,,
JVASP-48324,Li4Mn7O2F14,-2.39733,0.687,na,0.0,,,,,
JVASP-90360,SmHgPd,-0.64592,0.0,na,0.0,,,,,
JVASP-86222,SbI3,-0.30842,2.003,na,0.0382,,,,,
JVASP-62761,B4Rh5,-0.33164,0.0,na,0.0,,,,,
JVASP-65546,BaNa2In,-0.0626,0.0,na,0.192,,,,,
JVASP-65019,BeMo4Se,0.74716,0.0,na,1.0573,,,,,
JVASP-90480,ScInPt,-0.93437,0.0,na,0.0,,,,,
JVASP-98343,Fe3P2H8O12,-1.39718,0.111,na,0.0064,,,,,
JVASP-61272,TeAuI,-0.09946,0.852,1.147,0.0,,,,,
JVASP-97419,SnO2,-1.78566,0.964,na,0.0101,,,,,
JVASP-43549,LiMnF4,-2.74841,0.956,na,0.0234,,,,,
JVASP-97545,La2Ge3O9,-2.58079,3.042,na,0.0,,,,,
JVASP-65274,BeCu4Sb,0.25497,0.0,na,0.2914,,,,,
JVASP-85385,Ce3In3Ru2,-0.46531,0.0,na,0.0,,,,,
JVASP-86394,ErSi2Au2,-0.46913,0.0,na,0.1021,,,,,
JVASP-85680,Rb3MgH5,-0.33185,3.131,4.536,0.0069,,,,,
JVASP-98074,CaBi2O4,-1.91125,2.425,na,0.0096,,,,,
JVASP-97328,KSiSbO5,-2.23436,2.86,na,0.0,,,,,
JVASP-65233,BeGe4Te,0.69631,0.0,na,0.8373,,,,,
JVASP-88209,K3AlH6,-0.18799,2.221,na,0.1389,,,,,
JVASP-88638,CaNiGe2,-0.58066,0.0,na,0.0,,,,,
JVASP-85597,MnTl2GeTe4,-0.16759,0.225,na,0.0461,,,,,
JVASP-62610,Y4Fe3B6,-0.37298,0.0,na,0.1422,,,,,
JVASP-15436,UGa5Co,-0.3046,0.0,na,0.0,,,,,
JVASP-90598,Mg3Bi,-0.08366,0.0,na,0.0833,,,,,
JVASP-97905,Ba2NdCu3O6,-2.09097,0.0,na,0.0,,,,,
JVASP-65656,BaNa2Ga,0.01572,0.0,0.0,0.2326,,,,,
JVASP-65309,BeIn4Mo,0.96812,0.0,0.0,1.0453,,,,,
JVASP-52571,NaSbO3,-1.71768,1.844,3.22,0.0359,,,,,
JVASP-22672,CsK2Sb,-0.5317,1.207,2.045,0.0,,,,,
JVASP-91668,AgClO2,0.24216,0.353,2.568,0.4838,,,,,
JVASP-85304,CeAs2Pd3,-0.75928,0.0,na,0.0,,,,,
JVASP-48411,Li3TiV2O6,-2.57686,0.0,na,0.0519,,,,,
JVASP-14879,ScCo2,-0.40325,0.0,na,0.0,,,,,
JVASP-98653,PdAu2F8,-1.15286,0.513,na,0.0,,,,,
JVASP-60924,K2PAuS4,-0.84456,1.371,2.361,0.0,,,,,
JVASP-85483,Mn2NiO4,-1.54542,0.0,na,0.015,,,,,
JVASP-91860,KFeO2,-1.4553,0.0,na,0.0767,,,,,
JVASP-97788,LiCrP2O7,-2.32249,1.575,na,0.0,,,,,
JVASP-98421,Ti3Zn3C,-0.46842,0.0,na,0.0,,,,,