jid,formula,formation_energy_per_atom,optb88vdw_bandgap,mbj_bandgap,ehull,spacegroup_number,natoms,volume,bulk_modulus_kv,shear_modulus_gv
JVASP-93665,LiTiSe2O2,-0.68076,0.0,na,1.3082,,,,,
JVASP-71501,Be2GaPt,-0.28671,0.0,na,0.2506,,,,,
JVASP-106134,BaCuGe,-0.42619,0.0,na,0.0206,,,,,
JVASP-93194,KMg6Nb,0.25763,0.0,na,0.2587,,,,,
JVASP-94341,DySnGe,-0.63944,0.0,na,0.0,,,,,
JVASP-71230,ScBePt4,-0.39535,0.0,na,0.4652,,,,,
JVASP-22566,RbAlF4,-3.56722,7.364,9.968,0.0053,,,,,
JVASP-72442,ZrBeNb2,0.09674,0.0,na,0.191,,,,,
JVASP-95207,SrH6C4O7,-1.12678,2.856,na,0.1421,,,,,
JVASP-71996,BeNbCr2,0.22689,0.0,0.0,0.3379,,,,,
JVASP-96848,Ti2Se,-0.83312,0.0,na,0.0,,,,,
JVASP-96052,CoGeO3,-1.33397,0.0,na,0.1214,,,,,
JVASP-92274,CeMg3,-0.01561,0.0,na,0.0,,,,,
JVASP-92697,Hf2Pt3,-1.15484,0.0,na,0.0003,,,,,
JVASP-72124,BeHg2Ru,0.75721,0.0,na,0.8921,,,,,
JVASP-71840,Be2Ga2Re,0.43393,0.0,na,0.649,,,,,
JVASP-107974,PmYCu2,-0.27593,0.0,na,0.0,,,,,
JVASP-94380,Y2Mg,0.05203,0.0,na,0.1219,,,,,
JVASP-74755,Be2ZnBr,0.64462,0.0,na,1.0454,,,,,
JVASP-96918,Ga2Ir,-0.41403,0.0,na,0.0,,,,,
JVASP-87190,TlFeC3NO4,-0.60164,2.488,na,0.3203,,,,,
JVASP-108064,Ti3Se,-0.4713,0.0,na,0.1535,,,,,
JVASP-91481,Na3Fe5O9,-1.45549,0.0,na,0.1016,,,,,
JVASP-14971,AlNi3,-0.43843,0.0,0.0,0.0087,,,,,
JVASP-74228,HfBe2Pt,-0.38703,0.0,na,0.3373,,,,,
JVASP-71899,BeCu2Se,0.27745,0.0,na,0.7426,,,,,
JVASP-95046,Cr2Co,0.24792,0.0,na,0.2586,,,,,
JVASP-94147,Mg6CoSb,0.03644,0.0,na,0.1826,,,,,
JVASP-94970,Ti2H2O3,-1.84964,0.0,na,0.3883,,,,,
JVASP-70945,Sc2BeRe,-0.07657,0.0,na,0.1295,,,,,
JVASP-74806,ZrBe2Os,0.0148,0.0,0.0,0.3926,,,,,
JVASP-92457,Li2CuS2,-0.90488,0.0,na,0.1135,,,,,
JVASP-74853,BeSnCl2,0.0855,0.0,na,1.2048,,,,,
JVASP-54386,NbFeO4,-2.10682,0.0,0.0,0.0825,,,,,
JVASP-71588,Be2CdNi,-0.03382,0.0,na,0.2263,,,,,
JVASP-19862,CaPt2,-1.01626,0.0,na,0.0,,,,,
JVASP-42298,Li6FeO3F3,-2.35956,1.035,na,0.1658,,,,,
JVASP-108172,BaFe2N2,-0.47097,0.0,na,0.0,,,,,
JVASP-94768,RbMg6Al,0.17982,0.0,na,0.1983,,,,,
JVASP-92854,Mg6NbW,0.18798,0.0,na,0.2576,,,,,
JVASP-91340,Cu2P7,-0.11319,0.776,na,0.0,,,,,
JVASP-71794,TaBe2Cd,0.21974,0.0,na,0.4157,,,,,
JVASP-92319,MgCd3,-0.06192,0.0,na,0.0089,,,,,
JVASP-91262,K2W2O7,-2.39224,0.574,na,0.0,,,,,
JVASP-48459,V3O4F2,-2.69061,0.0,na,0.0189,,,,,
JVASP-95486,SrSiO3,-3.18476,4.994,na,0.0154,,,,,
JVASP-92649,MnGa4,-0.16333,0.0,na,0.0,,,,,
JVASP-23440,Sr2AsAu,-1.10025,0.559,0.838,0.0,,,,,
JVASP-94422,UInNi4,-0.24557,0.0,na,0.0154,,,,,
JVASP-42801,Li5Co2O2F5,-2.42326,0.0,na,0.1332,,,,,
JVASP-93143,NaMg6Si,0.0725,0.0,na,0.1541,,,,,
JVASP-107881,Li2CuSnO4,-1.67273,0.0,na,0.045,,,,,
JVASP-71502,BeTlZn,0.49029,0.0,na,0.4903,,,,,
JVASP-71620,BeVPt2,-0.38378,0.0,0.0,0.1568,,,,,
JVASP-74947,Be2ZnCu,0.02705,0.0,na,0.1492,,,,,
JVASP-74895,BeSbP2,0.7711,0.0,na,0.8572,,,,,
JVASP-72445,Ta2BeTl,0.43178,0.0,na,0.5396,,,,,
JVASP-93870,BaAsAu,-0.98902,0.0,na,0.0,,,,,
JVASP-94245,CeMg6Fe,0.1631,0.0,na,0.189,,,,,
JVASP-92393,KCo2S2,-0.71626,0.0,na,0.0,,,,,
JVASP-74623,BeIn2Se,0.36232,0.0,na,0.8301,,,,,
JVASP-74277,Be2ZnHg,0.46631,0.0,na,0.4663,,,,,
JVASP-71739,BeNbCu2,0.24144,0.0,na,0.3357,,,,,
JVASP-93213,DyCr2Si2,-0.38301,0.0,na,0.1023,,,,,
JVASP-93373,BN,-1.11164,1.159,na,0.2772,,,,,
JVASP-94098,HfMg6Ni,0.0575,0.0,na,0.1971,,,,,
JVASP-74445,Be2GeIr,-0.13197,0.0,0.0,0.2247,,,,,
JVASP-75003,KBe2Pt,0.83211,0.0,na,1.1956,,,,,
JVASP-17338,SnN,0.38816,0.0,na,0.3959,,,,,
JVASP-18705,TiGaNi,-0.54771,0.0,0.0,0.0,,,,,
JVASP-93270,Rb2Au3,-0.39179,0.0,na,0.0,,,,,
JVASP-72136,ScBeNi2,-0.28525,0.0,na,0.2383,,,,,
JVASP-74485,SrBe2Zn,0.46859,0.0,na,0.645,,,,,
JVASP-69446,HfBe2Ge,0.03686,0.0,0.0,0.4456,,,,,
JVASP-108067,Tb3Pr,0.02048,0.0,na,0.0264,,,,,
JVASP-74365,YBeHg2,0.12589,0.0,na,0.3457,,,,,
JVASP-94915,ReCl6,-0.58032,0.0,na,0.0,,,,,
JVASP-71231,BeGePb2,0.37655,0.0,na,0.3765,,,,,
JVASP-71163,KNaBe2,0.97833,0.0,na,0.9861,,,,,
JVASP-74711,Sc2BeV,0.1506,0.0,0.0,0.2265,,,,,
JVASP-3711,BaHI,-1.33748,3.021,3.724,0.0,,,,,
JVASP-3144,GaAgO2,-1.38062,0.788,1.76,0.0156,,,,,
JVASP-70946,YScBe2,0.03944,0.0,na,0.165,,,,,
JVASP-95356,Zr4Ni2O,-1.11552,0.0,na,0.0435,,,,,
JVASP-93822,PrGe2,-0.6302,0.0,na,0.0,,,,,
JVASP-74756,BeZnIr,-0.09536,0.0,na,0.2254,,,,,
JVASP-105630,K2HgPdF6,-1.95922,0.0,na,0.0936,,,,,
JVASP-587,NbTe2,-0.41691,0.0,0.0,0.0356,,,,,
JVASP-91422,KOs2O6,-1.36402,0.0,na,0.0,,,,,
JVASP-74581,BeFeBi2,0.78934,0.0,0.0,0.8907,,,,,
JVASP-71900,NaBePb,0.50626,0.0,na,0.6156,,,,,
JVASP-15492,Ti2AlN,-1.25513,0.0,na,0.0,,,,,
JVASP-74186,Be2TlTc,0.38384,0.055,0.192,0.5481,,,,,
JVASP-71621,LiTiBe,0.2743,0.0,0.0,0.3898,,,,,
JVASP-74446,KBeHg2,0.50124,0.0,na,0.6161,,,,,
JVASP-74230,Ca2BePt,-0.34474,0.0,na,0.3229,,,,,
JVASP-75004,BeCu4Re,0.49406,0.0,na,0.5837,,,,,
JVASP-93772,TaNiB,-0.59126,0.0,na,0.0003,,,,,
JVASP-71954,BeGa2Ru,-0.13455,0.0,0.0,0.2109,,,,,
JVASP-91202,LaMg3,-0.04415,0.0,na,0.0872,,,,,
JVASP-69451,TiBe2Pt,-0.35902,0.0,na,0.2763,,,,,
JVASP-43091,KLiZnS2,-1.25947,2.592,3.936,0.0,,,,,
JVASP-50714,LiFe6P4,-0.53143,0.0,na,0.003,,,,,
JVASP-18622,PrAu2,-0.81943,0.0,na,0.0,,,,,
JVASP-71795,LaBe2Mo,0.17639,0.0,na,0.3973,,,,,
JVASP-14805,PrP,-1.61374,0.0,0.0,0.0,,,,,
JVASP-74665,TiBeCd2,0.2874,0.0,0.0,0.3974,,,,,
JVASP-92519,BaMn2Bi2,-0.0628,0.0,na,0.3535,,,,,
JVASP-94342,Ca2CoO3,-2.17255,0.0,na,0.3596,,,,,
JVASP-74486,BeTlBi2,0.56372,0.0,na,0.5776,,,,,
JVASP-92603,Li2HfN2,-1.38591,1.985,na,0.0,,,,,
JVASP-105980,Ti2CuNi,-0.23585,0.0,0.0,0.0551,,,,,
JVASP-94870,SrAg4Sb2,-0.3119,0.0,na,0.0036,,,,,
JVASP-93056,NaMg6Ga,0.0,0.0,na,0.0456,,,,,
JVASP-96509,H8C3O2,-0.34025,6.126,na,0.201,,,,,
JVASP-92561,ThSi3Ru,-0.65373,0.0,na,0.0,,,,,
JVASP-72450,BeHg2Mo,0.90119,0.0,na,1.0116,,,,,
JVASP-71232,LiBe2Ru,-0.14481,0.0,na,0.1252,,,,,
JVASP-74401,BeBi2P,0.6722,0.0,na,0.7583,,,,,
JVASP-93435,YbAg2,-0.42914,0.0,na,0.0,,,,,
JVASP-74854,Sr2ZrBe,0.76717,0.0,na,0.8392,,,,,
JVASP-106051,LaNdN2,-1.54736,0.083,na,0.0232,,,,,
JVASP-74321,Be2ZnFe,0.02524,0.0,na,0.227,,,,,
JVASP-74624,BeTcRu,0.07848,0.0,na,0.2861,,,,,
JVASP-105899,HoCdAu,-0.69644,0.0,na,0.0,,,,,
JVASP-93501,Yb2Mg,-0.01649,0.0,na,0.0487,,,,,
JVASP-95696,Ba5Er2ZrAl2O13,-3.38113,2.372,na,0.0,,,,,
JVASP-107884,ZnGaCu3Se4,-0.20796,0.0,na,0.2034,,,,,
JVASP-95047,Cr2Fe,0.25544,0.0,na,0.2567,,,,,
JVASP-92904,HfMg6Mo,0.23473,0.0,na,0.2652,,,,,
JVASP-74526,ScBe2Sb,0.04911,0.0,0.0,0.5489,,,,,
JVASP-74187,CaBeBi2,-0.00038,0.0,na,0.4442,,,,,
JVASP-15559,ErCo3B2,-0.53978,0.0,na,0.0,,,,,
JVASP-71053,BeIrOs2,-0.15001,0.0,0.0,0.006,,,,,
JVASP-93329,Co2B,-0.20944,0.0,na,0.0351,,,,,
JVASP-74897,SrBeCu2,0.37286,0.0,na,0.5319,,,,,
JVASP-72139,Li2BeTl,0.09784,0.0,na,0.2902,,,,,
JVASP-71796,HfBe2Sb2,0.26623,0.0,na,0.5814,,,,,
JVASP-93196,KHfMg6,0.209,0.0,na,0.2101,,,,,
JVASP-69454,ZrBeIr,-0.64349,0.0,na,0.0635,,,,,
JVASP-94381,YMg2,0.02411,0.0,na,0.1346,,,,,
JVASP-71678,BeCu2Ni,-0.05037,0.0,na,0.1834,,,,,
JVASP-74625,MnBe2Co,-0.14717,0.0,na,0.1,,,,,
JVASP-72466,BeGe2Os,0.43417,0.0,na,0.4715,,,,,
JVASP-96069,BaPt2S3,-1.05575,1.046,na,0.0,,,,,
JVASP-108175,CaRu2N2,-0.32315,0.0,na,0.106,,,,,
JVASP-74807,Be2NbSb,0.01854,0.0,0.0,0.2673,,,,,
JVASP-99256,ThGeO4,-2.97598,4.166,4.633,0.0011,,,,,
JVASP-106136,Ba3SrAg4,-0.35021,0.0,na,0.0164,,,,,
JVASP-94148,Mg6CuSb,-0.05192,0.0,na,0.133,,,,,
JVASP-44018,Fe6O7F5,-1.70153,0.0,0.0,0.0703,,,,,
JVASP-93729,TmCo2B2C,-0.51157,0.0,na,0.0,,,,,
JVASP-92745,CeCoSi3,-0.63259,0.0,na,0.0,,,,,
JVASP-71998,BeFe2Ge,-0.0227,0.0,na,0.136,,,,,
JVASP-94770,Mg6AlCr,0.12882,0.0,na,0.1607,,,,,
JVASP-14972,NpN,-1.48093,0.0,na,0.0,,,,,
JVASP-92858,Mg6NbSb,0.06953,0.0,na,0.2042,,,,,
JVASP-53448,Cu2SiTe3,-0.05133,0.18,na,0.008,,,,,
JVASP-92394,SrCoO3,-1.94336,0.0,na,0.0167,,,,,
JVASP-93922,MgSn,-0.14002,0.0,na,0.0525,,,,,
JVASP-105700,AgClO3,0.05292,2.644,4.511,0.2486,,,,,
JVASP-3807,TmIO,-2.91766,3.43,4.507,0.0,,,,,
JVASP-74757,K2BeNb,1.41265,0.0,0.0,1.5113,,,,,
JVASP-96919,Pr2MoC2,-0.23088,0.0,na,0.0,,,,,
JVASP-94246,NaMg6Fe,0.1295,0.0,na,0.1315,,,,,
JVASP-50365,BaNa4O3,-1.62703,1.805,4.243,0.1393,,,,,
JVASP-16224,ScSi,-0.81742,0.0,0.0,0.0,,,,,
JVASP-1858,NaCoO2,-1.50687,0.876,na,0.0006,,,,,
JVASP-50821,Rb2SnO3,-1.76686,2.386,na,0.0,,,,,
JVASP-91341,BaP10,-0.30483,1.209,na,0.0,,,,,
JVASP-71797,Li2BeRe,0.28496,0.0,na,0.4198,,,,,
JVASP-74188,Be2TlRe,0.52923,0.0,0.061,0.798,,,,,
JVASP-96781,K2SeO4,-1.5122,3.928,na,0.0,,,,,
JVASP-74527,BeRuPb2,0.73515,0.0,na,0.8701,,,,,
JVASP-105832,NpSe3,-0.73549,0.0,0.0,0.2427,,,,,
JVASP-95208,Na2CuH4O4,-1.18312,0.679,na,0.0,,,,,
JVASP-99062,Cu3BiSe2ClO8,-0.88104,0.067,na,0.0031,,,,,
JVASP-71901,BeCr2Tc,0.14207,0.0,na,0.2242,,,,,
JVASP-16052,CaCuP,-0.95598,0.0,0.28,0.0,,,,,
JVASP-74280,BeFe4Pb,0.43548,0.0,na,0.5048,,,,,
JVASP-15269,AlFe2B2,-0.37049,0.0,0.0,0.0,,,,,
JVASP-74951,Be2GeIr,-0.05736,0.0,0.0,0.2993,,,,,
JVASP-74583,NaBeCl2,-0.52832,0.0,2.357,0.9996,,,,,
JVASP-1981,ZrCl2,-1.762,0.866,0.962,0.0,,,,,
JVASP-14564,ErAu2,-0.94883,0.0,0.0,0.0,,,,,
JVASP-72142,ScBeGa2,-0.31649,0.0,na,0.108,,,,,
JVASP-94284,USnAu,-0.23527,0.0,na,0.0317,,,,,
JVASP-3312,Na2CuAs,-0.4243,0.812,1.961,0.0,,,,,
JVASP-107978,Rh,0.01076,0.0,na,0.0,,,,,
JVASP-108068,Tb2In3Sn3,-0.45579,0.0,na,0.0,,,,,
JVASP-69457,Be2NbFe,0.0359,0.0,na,0.2823,,,,,
JVASP-71624,Ta2Be2Pb,0.56384,0.0,na,0.7245,,,,,
JVASP-71233,CaBe2Sn,0.31068,0.0,na,0.6921,,,,,
JVASP-48189,LiTiVO4,-2.72144,0.0,na,0.1088,,,,,
JVASP-18706,TiGaNi2,-0.54134,0.0,0.0,0.0,,,,,
JVASP-71740,BeNb2P,-0.13984,0.0,0.0,0.4453,,,,,
JVASP-92463,Li2BiS2,-0.94971,0.0,na,0.1161,,,,,
JVASP-94979,YTi2Ga4,-0.5336,0.0,na,0.0164,,,,,
JVASP-93774,UIrPt4,-0.38965,0.0,na,0.1654,,,,,
JVASP-91482,AlBPbO4,-2.52882,2.916,na,0.0,,,,,
JVASP-74626,LiBeGa,0.19342,0.0,0.0,0.4214,,,,,
JVASP-74899,MnBe2Hg,0.48634,0.0,na,0.6627,,,,,
JVASP-93144,NaMg6Si,0.07123,0.0,na,0.1528,,,,,
JVASP-71798,Li2BeSe,-0.24045,0.0,na,0.8091,,,,,
JVASP-94099,Mg6NiB,0.16896,0.0,na,0.2957,,,,,
JVASP-92320,CaZn3,-0.22224,0.0,na,0.0948,,,,,
JVASP-107887,Ac2AgPb,-0.44854,0.0,na,0.0,,,,,
JVASP-74231,Ca4BeRh,0.81785,0.0,na,1.0412,,,,,
JVASP-75005,BeZnBi2,0.52769,0.0,na,0.5277,,,,,
JVASP-72153,K2BeTc,1.29959,0.0,na,1.386,,,,,
JVASP-74447,ScBe2Br,0.26182,0.0,0.0,0.959,,,,,
JVASP-74714,Be2RhPb,0.26898,0.0,0.0,0.6302,,,,,
JVASP-74281,Ca2ScBe,0.38264,0.0,0.0,0.4538,,,,,
JVASP-95489,NaV6O11,-2.09919,0.0,na,0.0,,,,,
JVASP-2005,NaH,-0.30057,4.845,7.205,0.0,,,,,
JVASP-93436,CaAu5,-0.45172,0.0,na,0.0,,,,,
JVASP-74402,LiTiBe2,0.11455,0.0,na,0.2876,,,,,
JVASP-74367,Hf2BeZn,-0.1001,0.0,0.0,0.1122,,,,,
JVASP-93666,Si2Os,-0.31901,0.0,na,0.0146,,,,,
JVASP-92275,KMoO3,-2.29686,0.0,na,0.0,,,,,
JVASP-74487,ScBe2Te,0.02531,0.0,0.0,0.6679,,,,,
JVASP-91207,Tc2P3,-0.51116,0.0,na,0.0075,,,,,
JVASP-91423,Na3LuSi2O7,-2.86766,4.119,na,0.0,,,,,
JVASP-93057,NaHfMg6,0.11169,0.0,na,0.1132,,,,,
JVASP-74322,Be2VZn,0.23708,0.0,0.0,0.3888,,,,,
JVASP-107979,Sc2CdHg,-0.33932,0.0,na,0.0,,,,,
JVASP-74528,BeZnP4,0.83303,0.0,na,1.0224,,,,,
JVASP-87192,K2Li3FeO4,-1.82977,1.374,na,0.0,,,,,
JVASP-74667,MnBe2Cl2,0.57513,0.0,0.0,1.5411,,,,,
JVASP-15008,Nb3Ga,-0.1578,0.0,na,0.0565,,,,,
JVASP-74855,BeOsBr2,1.29026,0.0,0.0,2.0919,,,,,
JVASP-95358,FeS,-0.37356,0.0,na,0.2077,,,,,
JVASP-74900,BeInBi,0.31417,0.0,na,0.3159,,,,,
JVASP-94247,Mg6VFe,0.2312,0.0,na,0.2724,,,,,
JVASP-74956,Be2SiP,0.49432,0.0,na,0.7171,,,,,
JVASP-3147,ScAgO2,-2.4794,2.294,3.012,0.0,,,,,
JVASP-96513,Cd3B2O6,-1.85207,1.648,na,0.0,,,,,
JVASP-92905,BaMg6C,0.21472,0.0,na,0.2939,,,,,
JVASP-96849,BaCuSe2O6,-1.38766,0.498,na,0.008,,,,,
JVASP-94343,V2C,-0.19937,0.0,na,0.2973,,,,,
JVASP-93332,CeMnNi4,-0.25151,0.0,na,0.087,,,,,
JVASP-95700,Sr5As3ClO12,-2.49403,4.104,na,0.0,,,,,
JVASP-93197,Mg6TiB,0.13744,0.0,na,0.3431,,,,,
JVASP-48268,LiCo3O6,-1.31794,0.0,na,0.0467,,,,,
JVASP-105902,Pr2InAu2,-0.81084,0.0,na,0.0,,,,,
JVASP-96782,AlGaCl4,-1.37975,4.536,na,0.0,,,,,
JVASP-93376,CoTe2,-0.16877,0.0,na,0.036,,,,,
JVASP-94916,Ti4H3,-0.27603,0.0,na,0.0485,,,,,
JVASP-74808,TaBeGa,0.27264,0.0,0.0,0.4974,,,,,
JVASP-14663,UMn2,-0.01314,0.0,na,0.0632,,,,,
JVASP-93214,CeGaO3,-2.71828,0.0,na,0.1601,,,,,
JVASP-72158,YBeCl2,-0.64633,0.0,na,0.9627,,,,,
JVASP-92651,Nd2AlNi2,-0.4911,0.0,na,0.006,,,,,
JVASP-96071,EuAl2Cl8,-1.68211,0.039,na,0.1594,,,,,
JVASP-52816,Nd3Al3Si3N2O12,-3.07492,3.998,na,0.0,,,,,
JVASP-94423,CrO2,-2.09935,0.0,na,0.0119,,,,,
JVASP-105771,Ge3Au,0.25939,0.0,na,0.2594,,,,,
JVASP-99257,CoSb2,-0.14516,0.0,na,0.0074,,,,,
JVASP-92698,Ga2Te3,-0.00934,0.0,na,0.2973,,,,,
JVASP-93871,YMnNi4,-0.27926,0.0,na,0.0627,,,,,
JVASP-71902,CaBeW,0.64304,0.0,na,0.8831,,,,,
JVASP-92746,Y2GaNi2,-0.62039,0.0,na,0.0046,,,,,
JVASP-71236,BeCuSn2,0.1908,0.0,na,0.2528,,,,,
JVASP-91264,SrNiO2,-2.01251,0.0,na,0.0,,,,,
JVASP-94382,YMg2,0.03065,0.0,na,0.1412,,,,,
JVASP-92562,CeSi2Ir2,-0.85193,0.0,na,0.1526,,,,,
JVASP-71841,Mn2BeV,-0.04181,0.0,0.0,0.1946,,,,,
JVASP-105835,Pm2InSn,-0.55994,0.0,na,0.0013,,,,,
JVASP-74323,ZrBe2Nb,-0.00206,0.0,na,0.1865,,,,,
JVASP-74403,Be2CdCl,0.55292,0.0,na,1.1151,,,,,
JVASP-14641,TiOs,-0.76333,0.0,na,0.0,,,,,
JVASP-108181,La2MgNiO6,-2.82495,1.158,na,0.0,,,,,
JVASP-92396,TmSi2Ru2,-0.83399,0.0,na,0.0,,,,,
JVASP-92520,SrAlH3,0.17825,0.547,na,0.6091,,,,,
JVASP-74902,CaBeBr2,-0.58409,0.0,na,1.0487,,,,,
JVASP-92859,Mg6NbSb,0.04408,0.0,na,0.1788,,,,,
JVASP-94771,NaMg6Al,0.03922,0.0,na,0.0615,,,,,
JVASP-74531,LaBe2Pt,0.04048,0.0,na,0.7661,,,,,
JVASP-105634,K2IrAuF6,-1.81084,0.567,1.571,0.2906,,,,,
JVASP-74715,Be2GaRh,-0.25365,0.0,na,0.164,,,,,
JVASP-71956,BeOs2Ru,0.2111,0.0,na,0.3511,,,,,
JVASP-94149,Mg6GaCo,0.06638,0.0,na,0.1287,,,,,
JVASP-74668,BeBi2Pt,0.39465,0.0,na,0.6949,,,,,
JVASP-74448,SrBeIn2,0.1438,0.0,na,0.5338,,,,,
JVASP-71800,BeCr2W,0.06325,0.0,na,0.281,,,,,
JVASP-106058,KRbCl2,-2.05194,5.224,7.996,0.0446,,,,,
JVASP-108069,Ta2CN,-0.83965,0.0,na,0.1406,,,,,
JVASP-105981,TePb2S,-0.44058,0.446,0.81,0.1022,,,,,
JVASP-93502,MgHg5,0.16472,0.0,na,0.2094,,,,,
JVASP-71054,BeTc2Rh,-0.18435,0.0,0.0,0.1152,,,,,
JVASP-74368,Be2GaNi,-0.10004,0.0,na,0.173,,,,,
JVASP-74282,NaTaBe2,0.94311,0.0,na,1.1396,,,,,
JVASP-71679,BeCr2Cu,0.24908,0.0,0.0,0.3276,,,,,
JVASP-74233,Be2HgSb,0.7093,0.0,na,0.7093,,,,,
JVASP-107889,YbAc3,0.00512,0.0,na,0.0136,,,,,
JVASP-95209,CaH4N6O2,-0.58981,4.238,na,0.2429,,,,,
JVASP-71905,K2Be2Se,0.05856,0.0,na,0.7928,,,,,
JVASP-74856,Li2YBe,0.20542,0.0,0.0,0.2059,,,,,
JVASP-74324,SrBeNb4,0.76087,0.0,na,0.8237,,,,,
JVASP-74959,BeGaBi2,0.50064,0.0,na,0.5006,,,,,
JVASP-74404,BeFeBi2,0.76869,0.0,na,0.87,,,,,
JVASP-94100,Mg6CrNi,0.14933,0.0,na,0.2397,,,,,
JVASP-71237,BePPb2,0.22907,0.0,na,0.3151,,,,,
JVASP-94872,PdN2Cl4,1.32307,0.0,na,1.5345,,,,,
JVASP-71843,Li2BePt,-0.42574,0.0,na,0.1079,,,,,
JVASP-74630,TiBe2Cl,-0.14557,0.0,na,0.583,,,,,
JVASP-20068,B2Ru,-0.24644,0.0,0.0,0.0,,,,,
JVASP-75006,KCa2Be,0.56859,0.0,na,0.6125,,,,,
JVASP-99069,KZr2P3O12,-2.87227,4.542,na,0.0,,,,,
JVASP-74903,Be2GeOs,0.02108,0.0,na,0.0397,,,,,
JVASP-74189,TaBe2Cd,0.53464,0.0,0.0,0.7306,,,,,
JVASP-92604,YFe2Si2,-0.68108,0.0,na,0.0,,,,,
JVASP-74584,Be2SnSe,0.48151,0.0,na,0.9467,,,,,
JVASP-106137,Al2Te3,-0.48565,1.456,2.042,0.0012,,,,,
JVASP-93333,ZrCo2,-0.36528,0.0,na,0.0001,,,,,
JVASP-1861,NaMnO2,-1.86409,0.812,na,0.009,,,,,
JVASP-43821,LiCrP2O7,-2.27601,1.433,na,0.0,,,,,
JVASP-74532,Be2BiBr,0.32235,0.0,na,0.7232,,,,,
JVASP-71055,Zr2MnBe,0.03677,0.0,na,0.1859,,,,,
JVASP-91486,Li6ZrBeF12,-3.40406,6.421,na,0.0136,,,,,
JVASP-74759,Be2TcGe,-0.11512,0.0,0.0,0.0666,,,,,
JVASP-74669,Ca2BeIr,-0.02004,0.0,na,0.2845,,,,,
JVASP-93775,MgIn2,0.12576,0.0,na,0.2036,,,,,
JVASP-48726,Mn3O4F2,-2.00167,0.0,na,0.0,,,,,
JVASP-74716,BeSnBi,0.28653,0.0,na,0.2865,,,,,
JVASP-19872,TaAl3,-0.31744,0.0,0.0,0.0,,,,,
JVASP-74369,Y4ZrBe,0.73975,0.0,na,0.7878,,,,,
JVASP-74234,LaTaBe2,0.702,0.0,na,0.8955,,,,,
JVASP-1984,HgBr,-0.26713,1.818,2.618,0.0,,,,,
JVASP-92276,LaCo2Ge2,-0.6019,0.0,na,0.0002,,,,,
JVASP-3810,YCl3,-2.36393,4.565,5.283,0.0,,,,,
JVASP-18707,VGaNi2,-0.27783,0.0,na,0.0183,,,,,
JVASP-74858,Be2NbRe,0.06972,0.0,0.0,0.3777,,,,,
JVASP-71680,TaBe2Sb,0.52317,0.0,na,0.7413,,,,,
JVASP-74488,TiBe2Rh,-0.34328,0.0,0.0,0.183,,,,,
JVASP-74449,BeCu4Tc,0.41023,0.0,0.0,0.465,,,,,
JVASP-15270,CeSi2Pd2,-0.83882,0.0,na,0.0,,,,,
JVASP-108071,SrNdFeO4,-2.74685,0.0,na,0.0,,,,,
JVASP-93145,CeMg6Mo,0.20851,0.0,na,0.2163,,,,,
JVASP-93730,DyCu2,-0.32554,0.0,na,0.0,,,,,
JVASP-95048,PtO2,-0.5898,0.0,0.0,0.0455,,,,,
JVASP-92906,BaMg6C,0.26257,0.0,na,0.3418,,,,,
JVASP-42642,LiFeOF2,-2.20246,0.0,na,0.1783,,,,,
JVASP-1330,Be2C,-0.34245,1.492,1.777,0.0573,,,,,
JVASP-71999,BeVSi2,-0.04069,0.0,0.0,0.2146,,,,,
JVASP-71238,BeTl2Rh,0.0253,0.0,na,0.3249,,,,,
JVASP-74760,BeBi2W,1.00312,0.0,na,1.179,,,,,
JVASP-94424,CeScSi,-0.53191,0.0,na,0.0913,,,,,
JVASP-107980,Sc2CuRh,-0.70126,0.0,na,0.0,,,,,
JVASP-14261,YbMn2As2,-0.49178,0.0,0.0,0.0563,,,,,
JVASP-74809,BeSiRh,-0.12342,0.0,0.0,0.3843,,,,,
JVASP-93199,LiMg6Nb,0.09229,0.0,na,0.1233,,,,,
JVASP-107891,Al3Cd,0.12522,0.0,na,0.1277,,,,,
JVASP-92465,Yb2TeO2,-2.43543,0.0,na,0.4556,,,,,
JVASP-74236,ZrBeBr2,0.25581,0.0,na,1.2972,,,,,
JVASP-75007,BeSiSb2,0.70865,0.0,na,0.7098,,,,,
JVASP-71057,ScBeTe2,-0.49789,0.0,na,0.4149,,,,,
JVASP-71801,SrTaBe,0.89834,0.0,na,1.0323,,,,,
JVASP-42850,Pr2AgIr,-0.50613,0.0,na,0.0082,,,,,
JVASP-74370,BeGe4Se,0.68469,0.0,na,0.9948,,,,,
JVASP-71907,BeGa2Os,0.033,0.0,na,0.218,,,,,
JVASP-74670,Be2CdPd,-0.09538,0.0,na,0.2294,,,,,
JVASP-93923,CeMg2,0.10788,0.0,na,0.1275,,,,,
JVASP-92321,Ce3Mg,0.10443,0.0,na,0.1216,,,,,
JVASP-95497,TbNaMnWO6,-2.53992,0.0,na,0.0955,,,,,
JVASP-74325,MnBe2Cr,-0.07176,0.0,na,0.1046,,,,,
JVASP-105701,AlPdO3,-1.78736,0.0,0.0,0.1224,,,,,
JVASP-94248,Mg6FeSi,0.14302,0.0,na,0.2478,,,,,
JVASP-93271,ThSi2Rh2,-1.02787,0.0,na,0.0,,,,,
JVASP-74533,Be2VFe,-0.09218,0.0,na,0.1481,,,,,
JVASP-74453,NaCa2Be,0.32459,0.0,na,0.3694,,,,,
JVASP-87193,SmFeO3,-2.59973,0.0,na,0.0,,,,,
JVASP-91342,Mo2SBr2,-0.73301,1.002,na,0.0,,,,,
JVASP-74284,Ca2ZrBe,0.54951,0.0,na,0.63,,,,,
JVASP-108187,VOF,-2.65469,0.0,na,0.0667,,,,,
JVASP-96784,Sr2RhF7,-3.17539,1.985,na,0.0,,,,,
JVASP-105904,Sr2DyUO6,-3.40928,1.001,na,0.0809,,,,,
JVASP-74490,BeBi2Cl,0.29815,0.0,na,0.8578,,,,,
JVASP-96072,BaAl2Cl8,-1.91675,5.527,na,0.0,,,,,
JVASP-15042,TbPd3,-0.91481,0.0,0.0,0.0051,,,,,
JVASP-3714,CaH2O2,-1.99357,4.465,6.937,0.0,,,,,
JVASP-94917,NdIn5Co,-0.28033,0.0,na,0.0,,,,,
JVASP-15744,TmSi2Pt2,-0.9341,0.0,na,0.0,,,,,
JVASP-94150,Mg6CoSn,0.04831,0.0,na,0.1561,,,,,
JVASP-105635,K2AsAuCl6,-1.08222,0.0,na,0.0689,,,,,
JVASP-92699,LaSi3Rh,-0.78022,0.0,na,0.0,,,,,
JVASP-42802,LiNbVO4,-2.49045,0.0,na,0.0923,,,,,
JVASP-71627,BeCu2Pt,-0.20505,0.0,0.0,0.0886,,,,,
JVASP-94383,Y2Mg,0.04964,0.0,na,0.1195,,,,,
JVASP-72160,BeHg2Te,0.45042,0.0,na,0.6619,,,,,
JVASP-105837,PmAs3,-0.55224,0.0,na,0.0,,,,,
JVASP-95362,K3NO4,-1.19783,4.114,na,0.0,,,,,
JVASP-94772,RbMg6Al,0.17991,0.0,na,0.1984,,,,,
JVASP-91211,SrGe2,-0.55275,0.353,na,0.0203,,,,,
JVASP-99258,LaB2C2,-0.51679,0.0,na,0.0,,,,,
JVASP-93437,PdI2,-0.19162,0.422,na,0.0289,,,,,
JVASP-74859,Be2TeSe,-0.10531,0.0,na,0.5714,,,,,
JVASP-94987,In2Co3S2,-0.36743,0.0,na,0.0,,,,,
JVASP-18584,HoInAg2,-0.37751,0.0,na,0.0,,,,,
JVASP-107983,Sr3Cu,0.14794,0.0,na,0.2359,,,,,
JVASP-5365,CrCl3,-1.15285,1.493,na,0.0,,,,,
JVASP-74237,ZrBe2In,0.25163,0.0,na,0.5207,,,,,
JVASP-19929,CeZn,-0.20661,0.0,na,0.0595,,,,,
JVASP-74454,Li4BePb,0.16722,0.0,na,0.4297,,,,,
JVASP-93667,MgF2,-3.77528,7.344,na,0.0165,,,,,
JVASP-15398,YbNaS2,-1.48169,0.0,na,0.2315,,,,,
JVASP-74905,K2BeOs,1.32504,0.179,0.402,1.3293,,,,,
JVASP-96851,RbPPbS4,-0.7671,2.393,na,0.0003,,,,,
JVASP-74190,Mg2TiBe,0.28191,0.0,0.0,0.3683,,,,,
JVASP-107894,Ba2CdHg,-0.46865,0.0,na,0.0048,,,,,
JVASP-96920,BiI3O9,-0.60892,3.059,na,0.0,,,,,
JVASP-44319,Mn6O5F7,-2.15475,0.0,na,0.0,,,,,
JVASP-92860,Mg6NbBi,0.10398,0.0,na,0.1874,,,,,
JVASP-95704,Bi3Pt3O11,-1.05313,0.0,na,0.0,,,,,
JVASP-93058,NaMg6Cd,-0.00442,0.0,na,0.0383,,,,,
JVASP-91424,Ca3Nb4O12F2,-3.12803,3.02,na,0.033,,,,,
JVASP-74960,TiBe2Os,-0.16714,0.0,na,0.2719,,,,,
JVASP-74672,Be2CoNi,-0.19486,0.0,0.0,0.227,,,,,
JVASP-74327,Be2CrNi,-0.11083,0.0,na,0.2015,,,,,
JVASP-71743,NaBeCr2,1.00156,0.0,na,1.0831,,,,,
JVASP-74631,Be2TlZn,0.68197,0.0,na,0.682,,,,,
JVASP-94101,Mg6NbNi,0.11714,0.0,na,0.2075,,,,,
JVASP-74491,Be2PRh,-0.15985,0.0,na,0.3139,,,,,