jid,formula,formation_energy_per_atom,optb88vdw_bandgap,mbj_bandgap,ehull,spacegroup_number,natoms,volume,bulk_modulus_kv,shear_modulus_gv
JVASP-95072,Zr2Rh,-0.58563,0.0,na,0.0163,,,,,
JVASP-14974,Ta5Sb4,-0.12033,0.0,na,0.0,,,,,
JVASP-15011,TaBe2,-0.17009,0.0,0.0,0.0878,,,,,
JVASP-15653,CaCuSb,-0.73204,0.0,0.0,0.0,,,,,
JVASP-51103,LaGeOs,0.83411,0.0,na,1.4545,,,,,
JVASP-96568,NaNb3O8,-2.66004,2.54,na,0.0305,,,,,
JVASP-92419,RbCo2Se2,-0.51132,0.0,na,0.0135,,,,,
JVASP-94885,SiSbPt5,-0.20808,0.0,na,0.18,,,,,
JVASP-3165,K4ZnP2,-0.50405,1.018,2.503,0.0,,,,,
JVASP-21532,ZrP2O7,-2.72368,4.762,na,0.0,,,,,
JVASP-98991,Ho2SiSeO4,-3.19844,2.736,na,0.0,,,,,
JVASP-93948,LaAl3Pd2,-0.85817,0.0,na,0.0,,,,,
JVASP-93523,CaMg,0.04192,0.0,na,0.1581,,,,,
JVASP-106011,Ni6SbTe2,-0.12397,0.0,na,0.0138,,,,,
JVASP-92619,Na2ZrN2,-0.85556,0.0,na,0.0,,,,,
JVASP-74843,K2NaBe,0.53425,0.0,na,0.5447,,,,,
JVASP-92488,LaReN3,-0.92068,0.0,na,0.0,,,,,
JVASP-91359,HgCN2,0.51221,2.494,na,0.5207,,,,,
JVASP-4624,BaCu2As2,-0.54352,0.0,0.0,0.0,,,,,
JVASP-12194,TeO3,-0.16365,0.19,1.046,0.722,,,,,
JVASP-94398,Mg5Zn,-0.01388,0.0,na,0.0224,,,,,
JVASP-105804,YbLiPb2,-0.44577,0.0,na,0.0315,,,,,
JVASP-75037,MnBe2Cu,-0.05833,0.0,na,0.118,,,,,
JVASP-107948,Lu3Mg,0.00839,0.0,na,0.0221,,,,,
JVASP-99115,Na2Si2O5,-2.64681,4.672,na,0.0195,,,,,
JVASP-105940,SrMg2In2,-0.33703,0.0,na,0.0,,,,,
JVASP-92883,Mg6BiMo,0.16443,0.0,na,0.2479,,,,,
JVASP-108139,CoNiSe2,-0.2152,0.0,na,0.0775,,,,,
JVASP-94301,YbCu4Ag,-0.3103,0.0,na,0.0,,,,,
JVASP-14647,ThAg2,-0.20566,0.0,0.0,0.0,,,,,
JVASP-93837,YCu2,-0.19351,0.0,na,0.1345,,,,,
JVASP-94062,Mg6VCr,0.33508,0.0,na,0.3594,,,,,
JVASP-92302,Zr2H2Pd,-0.58057,0.0,na,0.0481,,,,,
JVASP-92712,UGa3Ni,-0.26309,0.0,na,0.0454,,,,,
JVASP-96874,CuH12N2Cl4O2,-0.67918,0.635,na,0.0109,,,,,
JVASP-19931,HoAu2,-0.94523,0.0,0.0,0.0,,,,,
JVASP-50722,Li2CuSiO4,-2.14071,0.649,na,0.0767,,,,,
JVASP-18922,PrCd,-0.35406,0.0,na,0.0,,,,,
JVASP-96805,La4S3NCl3,-2.39483,3.035,na,0.0,,,,,
JVASP-93166,LiMg6Si,0.00538,0.0,na,0.1254,,,,,
JVASP-92669,VAu4,-0.0004,0.0,na,0.0128,,,,,
JVASP-93391,LiMg,-0.04277,0.0,na,0.0716,,,,,
JVASP-43827,Li2FeF4,-2.54496,0.043,0.0,0.1419,,,,,
JVASP-93793,KCN,-0.40585,5.155,na,0.1091,,,,,
JVASP-74995,BeVIn2,0.40623,0.0,0.0,0.4847,,,,,
JVASP-44482,Li4NbFe5O12,-1.84863,0.0,0.0,0.0734,,,,,
JVASP-580,NbSe2,-0.86093,0.0,na,0.0065,,,,,
JVASP-105863,SrCeHg2,-0.32364,0.0,na,0.0114,,,,,
JVASP-45852,Li2Nb2Fe3O10,-2.02123,0.0,na,0.139,,,,,
JVASP-105719,Ba2TlHg,-0.47859,0.0,na,0.0263,,,,,
JVASP-14815,Ti,0.0,0.0,0.0,0.0,,,,,
JVASP-3636,AsI3,-0.19585,2.016,2.422,0.0,,,,,
JVASP-92425,HoSi2Pt2,-0.95676,0.0,na,0.06,,,,,
JVASP-44042,MgFeO3,-2.04139,0.0,0.0,0.0247,,,,,
JVASP-94805,KMg6Sn,0.04421,0.0,na,0.1416,,,,,
JVASP-94358,MgSn5,0.02393,0.0,na,0.0881,,,,,
JVASP-94204,Mg6FeBi,0.11694,0.0,na,0.2009,,,,,
JVASP-19844,ScAl2,-0.50182,0.0,0.0,0.0,,,,,
JVASP-105677,Na2LiRhF6,-2.45845,2.005,na,0.0174,,,,,
JVASP-93093,Mg6CrSi,0.15649,0.0,na,0.2578,,,,,
JVASP-94839,InCo3SnS2,-0.40426,0.226,na,0.0,,,,,
JVASP-95566,Ca2AlH8S2ClO12F2,-1.88351,5.792,na,0.0,,,,,
JVASP-93347,TiNCl,-1.66352,0.608,na,0.0,,,,,
JVASP-93234,BaCoO3,-1.83804,0.0,na,0.2098,,,,,
JVASP-93749,Hf2Bi,-0.1534,0.0,na,0.0,,,,,
JVASP-95416,SeBr,-0.06451,1.45,2.421,0.0148,,,,,
JVASP-17349,AlAgO3,-0.06942,0.0,na,1.6872,,,,,
JVASP-93458,FeO2,-1.27462,0.0,na,0.1458,,,,,
JVASP-95284,SrMgP3N5O2,-1.48042,4.388,na,0.0,,,,,
JVASP-42656,Yb4Br6O,-2.46918,4.69,na,0.0,,,,,
JVASP-92767,Pd3N2,0.58895,0.0,na,0.5952,,,,,
JVASP-95080,Na5Fe3F14,-2.56258,0.131,na,0.0,,,,,
JVASP-108025,BaLaCo2O5,-2.23924,0.0,na,0.0516,,,,,
JVASP-93838,K2Zr,1.25707,0.0,na,1.2628,,,,,
JVASP-92360,Ca2GaCu2,-0.36362,0.0,na,0.0,,,,,
JVASP-96740,LaF3,-4.26582,5.628,na,0.1572,,,,,
JVASP-3735,CaHBr,-1.46904,3.96,4.965,0.0136,,,,,
JVASP-105805,LuTe,-1.14879,0.0,na,0.0,,,,,
JVASP-93891,USbPd,-0.44798,0.0,na,0.0338,,,,,
JVASP-105941,Rb2TcCl6,-1.45527,1.057,na,0.0,,,,,
JVASP-92303,SmCrO3,-2.81476,0.033,na,0.184,,,,,
JVASP-91234,KC10,0.2066,0.507,na,0.2102,,,,,
JVASP-92533,SrGe3Ir,-0.57082,0.0,na,0.0,,,,,
JVASP-92575,ThSi3Ir,-0.7509,0.0,na,0.0,,,,,
JVASP-99518,CdCuN,0.31486,0.0,na,0.3233,,,,,
JVASP-96569,H3ClO5,-0.3866,5.854,na,0.1158,,,,,
JVASP-74996,BeFeRe,0.17623,0.0,na,0.3875,,,,,
JVASP-106088,Dy2In3Sn3,-0.43133,0.0,na,0.0111,,,,,
JVASP-15747,Ho3SnC,1.45521,0.0,0.0,2.0219,,,,,
JVASP-15450,PrCo2Ge2,-0.58758,0.0,0.0,0.0,,,,,
JVASP-94935,V2CoSe4,-0.59759,0.0,na,0.0262,,,,,
JVASP-93691,IrC2,0.81778,0.0,na,0.8199,,,,,
JVASP-99373,Ga3Sb,0.08565,0.0,0.0,0.16,,,,,
JVASP-42148,LiVNiO4,-2.02695,0.648,na,0.0171,,,,,
JVASP-48281,Li2CrSiO4,-2.32417,0.0,na,0.1489,,,,,
JVASP-91300,Fe7C3,0.02633,0.0,na,0.0298,,,,,
JVASP-99353,Rb2SnH12N6,-0.30894,2.776,4.307,0.0,,,,,
JVASP-94886,Al2FeS4,-0.93046,0.594,na,0.1159,,,,,
JVASP-18665,GaFeCo2,-0.19638,0.0,0.0,0.0,,,,,
JVASP-95075,TbNi5,-0.3658,0.0,na,0.0,,,,,
JVASP-99419,CaPmMg2,-0.10128,0.0,0.0,0.0081,,,,,
JVASP-75040,Be2CuBi,0.50689,0.0,na,0.6161,,,,,
JVASP-11968,AlNi3,-0.43844,0.0,na,0.0087,,,,,
JVASP-92620,Li2SnN2,-0.38781,2.056,na,0.0158,,,,,
JVASP-95250,H2C2S3N2O6F6,-0.99741,6.23,na,0.2351,,,,,
JVASP-91445,ZnS,-0.88669,2.09,na,0.0001,,,,,
JVASP-93392,Ce2Mg,0.11781,0.0,na,0.1407,,,,,
JVASP-93292,Mg5Hg,-0.04305,0.0,na,0.0409,,,,,
JVASP-98992,Ca5Sn2As6,-0.94875,0.282,na,0.0,,,,,
JVASP-108142,CrP2W,-0.41756,0.0,na,0.0447,,,,,
JVASP-108032,RbAs2Rh2,-0.62026,0.0,0.0,0.0,,,,,
JVASP-19907,AlB2,-0.0406,0.0,0.0,0.0,,,,,
JVASP-93525,CaMg2,0.06526,0.0,na,0.2071,,,,,
JVASP-48340,Li6CoOF6,-2.77546,0.0,na,0.098,,,,,
JVASP-13767,TaO2,-2.79812,0.0,na,0.0423,,,,,
JVASP-107953,MgURu2,-0.26937,0.0,na,0.0,,,,,
JVASP-16026,SrPuO4,-3.08069,0.0,0.0,0.0,,,,,
JVASP-72476,InAgS2,-0.45522,0.42,na,0.0031,,,,,
JVASP-105678,K2RbMoCl6,-1.53153,1.436,na,0.1292,,,,,
JVASP-94806,KSrMg6,0.09974,0.0,na,0.1611,,,,,
JVASP-12026,NbSe2Br2,-0.77226,0.817,na,0.0042,,,,,
JVASP-15610,CaAs2Ru2,-0.62437,0.0,na,0.0,,,,,
JVASP-92670,K2PdSe2,-0.97458,0.88,na,0.0,,,,,
JVASP-50371,Y2HgO4,-2.83236,2.264,na,0.0,,,,,
JVASP-93167,LiMg6Nb,0.10133,0.0,na,0.1323,,,,,
JVASP-93235,BaCuO3,-1.48244,0.0,na,0.0619,,,,,
JVASP-15044,TiBe2,-0.18051,0.0,0.0,0.0499,,,,,
JVASP-14816,Ti,0.11264,0.0,0.0,0.0,,,,,
JVASP-94302,ThSiNi,-0.81748,0.0,na,0.0,,,,,
JVASP-94840,LiMg4Si2,-0.12229,0.0,na,0.1064,,,,,
JVASP-96876,LiH2NO3,-1.01379,2.788,na,0.0646,,,,,
JVASP-96161,C,0.41425,1.06,na,0.0,,,,,
JVASP-92361,LaBRh3,-0.70292,0.0,na,0.0009,,,,,
JVASP-99519,Ba2PdN2,-0.46898,0.0,na,0.186,,,,,
JVASP-18493,Li4FeN2,-0.42094,0.0,na,0.1253,,,,,
JVASP-105864,Ta3Pt,-0.24345,0.0,na,0.041,,,,,
JVASP-105720,BaBr3,-1.57654,0.0,0.0,0.1897,,,,,
JVASP-99471,Li2TlSb,-0.45137,0.628,0.53,0.0463,,,,,
JVASP-106169,CoCO3,-1.16678,0.0,na,0.0126,,,,,
JVASP-94359,Zr2Sn,-0.30623,0.0,na,0.1967,,,,,
JVASP-15824,LiVS2,-1.21286,0.0,0.0,0.0214,,,,,
JVASP-96995,Na2Bi5AuO11,-1.18252,1.064,na,0.0782,,,,,
JVASP-74845,BeIn2Sb,0.48718,0.0,0.0,0.5353,,,,,
JVASP-92304,LaVO3,-3.12725,0.0,na,0.0,,,,,
JVASP-105806,LuCdPt2,-0.92601,0.0,na,0.0041,,,,,
JVASP-94399,Mg2Zn,-0.00115,0.0,na,0.0715,,,,,
JVASP-91366,Ta2FeO6,-2.5487,0.057,na,0.0869,,,,,
JVASP-93840,Er2SiRh3,-0.99299,0.0,na,0.0072,,,,,
JVASP-18469,Na3Bi,-0.43808,0.0,0.578,0.0,,,,,
JVASP-15196,YSi2Cu2,-0.56551,0.0,0.0,0.0,,,,,
JVASP-96934,NaPH4O5,-1.61254,5.516,na,0.0,,,,,
JVASP-94887,LaCl3O3,-0.5971,0.0,na,0.8749,,,,,
JVASP-21533,ErPS4,-1.10455,2.261,na,0.0,,,,,
JVASP-92426,YbAl2Ga2,-0.41998,0.0,na,0.0,,,,,
JVASP-1744,KNdTe2,-1.48727,1.255,1.81,0.0,,,,,
JVASP-93459,MnO2,-1.65855,0.0,na,0.1464,,,,,
JVASP-93794,Na2TiO3,-2.52434,1.324,na,0.1089,,,,,
JVASP-15117,Li2MgTl,-0.2121,0.0,na,0.0582,,,,,
JVASP-93095,RbMg6B,0.27753,0.0,na,0.3177,,,,,
JVASP-106012,Pr2Ga5Cu3,-0.4785,0.0,na,0.0,,,,,
JVASP-18521,Ca3SnO,-1.8137,0.0,na,0.0,,,,,
JVASP-92490,MnAu4,-0.04394,0.0,na,0.0,,,,,
JVASP-46173,HfFeO3,-2.56582,0.0,na,0.2036,,,,,
JVASP-48509,Na6CoO4,-1.28941,0.007,na,0.1166,,,,,
JVASP-51147,MnRePt,0.9138,0.0,na,1.1123,,,,,
JVASP-14930,BW,-0.30321,0.0,na,0.2664,,,,,
JVASP-93892,NdCu4Ag,-0.21921,0.0,na,0.0,,,,,
JVASP-108043,ZnCdS2,-0.75451,1.205,2.602,0.0241,,,,,
JVASP-18623,SmAu3,-0.75785,0.0,na,0.0,,,,,
JVASP-99609,Zr3Ta,0.14934,0.0,na,0.1493,,,,,
JVASP-92768,LiNO3,1.03608,0.0,na,2.0779,,,,,
JVASP-18445,ScCl,-1.50035,0.0,na,0.0198,,,,,
JVASP-91237,K3SbO3,-1.70555,3.446,na,0.0,,,,,
JVASP-16123,KPdF3,-1.9936,0.0,na,0.0401,,,,,
JVASP-95085,K2BiMoPO8,-2.20834,3.56,na,0.0,,,,,
JVASP-74846,Be2CoP,-0.17819,0.0,na,0.1677,,,,,
JVASP-105679,Rb2InSbBr6,-1.13254,0.169,na,0.046,,,,,
JVASP-93750,UCuSn,-0.04307,0.0,na,0.0203,,,,,
JVASP-93393,Ce5Mg,0.10588,0.0,na,0.1173,,,,,
JVASP-94842,CdPb2Cl2O2,-1.28727,2.481,na,0.0,,,,,
JVASP-99564,VCuO3,-1.83365,0.926,na,0.0682,,,,,
JVASP-99520,V2O3F,-2.66787,0.0,na,0.0101,,,,,
JVASP-93293,YMg5,-0.02008,0.0,na,0.0392,,,,,
JVASP-93692,TaN,-1.32058,0.0,na,0.0,,,,,
JVASP-92362,NpSi2Ru2,-0.5925,0.0,na,0.0,,,,,
JVASP-91302,Pr2InPd2,-0.82436,0.0,na,0.0,,,,,
JVASP-15088,CeCd3,-0.2479,0.0,na,0.0,,,,,
JVASP-106171,FeF3,-2.20363,0.225,na,0.0,,,,,
JVASP-105865,Sr2InHg,-0.49995,0.0,na,0.0068,,,,,
JVASP-94400,YMg,0.03287,0.0,na,0.1376,,,,,
JVASP-96598,RbMgCl3,-2.06745,5.058,na,0.0206,,,,,
JVASP-96741,Tl2TeS3,-0.27514,1.22,na,0.0,,,,,
JVASP-43106,LiFeOF,-1.96016,0.0,na,0.2394,,,,,
JVASP-92576,CeSi3Ir,-0.76145,0.0,na,0.0,,,,,
JVASP-93348,PuB2Ru3,-0.25166,0.0,na,0.0463,,,,,
JVASP-95419,GeBr2,-0.60786,2.292,na,0.0,,,,,
JVASP-94360,Zr5Sn,-0.17758,0.0,na,0.0739,,,,,
JVASP-99124,Na4Li5B3O9,-2.3276,4.222,na,0.0,,,,,
JVASP-93841,Cr2Ni,0.23559,0.0,na,0.2548,,,,,
JVASP-96166,RbPH4O5,-1.64293,5.596,na,0.0089,,,,,
JVASP-91446,Ba2NiF6,-3.31135,0.403,na,0.0104,,,,,
JVASP-92672,BaGe3Ir,-0.55684,0.0,na,0.0,,,,,
JVASP-99354,Ca5MnSi9Pb9O33,-2.5063,1.413,na,0.013,,,,,
JVASP-92427,SmCo2P2,-0.99224,0.0,na,0.0,,,,,
JVASP-95739,Li3AlSiO5,-2.83377,5.173,na,0.0,,,,,
JVASP-105814,MgAs,-0.44952,0.0,na,0.1435,,,,,
JVASP-74847,TaBe2Cl,0.11085,0.0,na,0.8175,,,,,
JVASP-99423,Hg3Bi,0.30836,0.0,na,0.3084,,,,,
JVASP-21216,H,0.40895,0.0,na,0.0,,,,,
JVASP-96808,K2SbPO6,-2.09413,2.631,na,0.0,,,,,
JVASP-94937,Cr2FeS4,-0.66396,0.0,na,0.0411,,,,,
JVASP-95257,VPH5NO6,-1.53165,2.199,na,0.0,,,,,
JVASP-92714,NdSi3Rh,-0.73182,0.0,na,0.0,,,,,
JVASP-14863,ZrRu,-0.68783,0.0,na,0.0,,,,,
JVASP-18877,NbCuTe2,-0.31342,0.0,na,0.026,,,,,
JVASP-28380,NdCoP,-0.90828,0.0,0.0,0.1855,,,,,
JVASP-98994,Nd2Ge5Rh3,-0.79442,0.0,na,0.0229,,,,,
JVASP-28409,Te2Mo,-0.151,1.228,1.229,0.0897,,,,,
JVASP-92491,U2N3,-1.58918,0.031,na,0.0,,,,,
JVASP-93526,Mg2Cd,-0.04851,0.0,na,0.0441,,,,,
JVASP-14817,Rh,0.0,0.0,0.0,0.0,,,,,
JVASP-14887,SbRu,-0.06037,0.0,na,0.0884,,,,,
JVASP-3738,SrHBr,-1.53332,4.074,5.232,0.0,,,,,
JVASP-92621,CaIn2N2,-0.4535,0.279,na,0.0,,,,,
JVASP-14648,Cu,0.0,0.0,0.0,0.0,,,,,
JVASP-14975,NdN,-1.56832,0.0,0.712,0.0,,,,,
JVASP-93795,TbCdNi4,-0.39379,0.0,na,0.0,,,,,
JVASP-96999,Ho2Sn3Pb3S12,-0.94825,0.623,na,0.0105,,,,,
JVASP-106089,ErPaO4,-4.01057,3.088,3.066,0.0,,,,,
JVASP-105942,MnCo3C,0.08551,0.0,0.0,0.1187,,,,,
JVASP-11969,MgNi2,-0.26272,0.0,na,0.0175,,,,,
JVASP-96877,K2LiAlF6,-1.0313,0.0,na,2.4062,,,,,
JVASP-3639,PrBr3,-1.99646,3.526,4.525,0.0,,,,,
JVASP-107955,MgHgPd2,-0.41934,0.0,0.0,0.0506,,,,,
JVASP-105867,ThMgHg2,-0.20006,0.0,na,0.0,,,,,
JVASP-52824,ScF3,-3.69217,4.701,5.997,0.4224,,,,,
JVASP-18415,TmH2,-0.74184,0.0,0.039,0.0,,,,,
JVASP-13990,TaTe5Pt,-0.32215,0.0,na,0.0,,,,,
JVASP-93949,YB2Ir3,-0.68012,0.0,na,0.0,,,,,
JVASP-105721,Ba3Sm,0.19058,0.0,0.0,0.1906,,,,,
JVASP-94303,ZrSc2,-0.02301,0.0,na,0.0,,,,,
JVASP-95568,Rb2MgH4,-0.353,3.469,5.257,0.0,,,,,
JVASP-108144,CrCoSi2,-0.30698,0.0,na,0.0615,,,,,
JVASP-99374,Ho2ZnHg,-0.3688,0.0,0.0,0.0189,,,,,
JVASP-95286,SrLiBO3,-2.86191,4.8,na,0.0,,,,,
JVASP-94843,InRh3PbS2,-0.46392,0.0,na,0.0,,,,,
JVASP-105680,Rb2NaPrF6,-3.41529,6.595,9.141,0.0572,,,,,
JVASP-92534,SrGe3Pt,-0.64156,0.0,na,0.0,,,,,
JVASP-108045,Zr2CrCo3,-0.30642,0.0,na,0.0,,,,,
JVASP-94813,Ga3Pt5,-0.51682,0.0,na,0.0,,,,,
JVASP-99521,MnTlO3,-1.38567,0.0,na,0.0,,,,,
JVASP-76228,Ho5Rh3,-0.7907,0.0,na,0.0,,,,,
JVASP-54439,FeB2W2,-0.55503,0.0,0.0,0.0,,,,,
JVASP-95088,AlSeBr3N,-0.59899,1.797,na,0.1637,,,,,
JVASP-12056,NiTeO4,-0.82102,0.029,na,0.1543,,,,,
JVASP-94401,Mg5Ti,0.16754,0.0,na,0.1675,,,,,
JVASP-92494,Mn3SnC,0.00918,0.0,na,0.0866,,,,,
JVASP-93842,Nb2Cr,0.79083,0.0,na,0.8075,,,,,
JVASP-93236,MgCoO3,-1.33507,0.0,na,0.52,,,,,
JVASP-108149,Ce2MgZn,-0.11631,0.0,na,0.0455,,,,,
JVASP-91368,Ba3Ta2NiO9,-2.94826,1.283,na,0.0,,,,,
JVASP-95753,GaTe4Mo4Se4,-0.44864,0.0,na,0.0041,,,,,
JVASP-93460,MnO2,-1.80476,0.155,na,0.0002,,,,,
JVASP-93394,Ce2Mg,0.06634,0.0,na,0.0893,,,,,
JVASP-96742,K3Cu8S6,-0.57763,0.0,na,0.0,,,,,
JVASP-99565,VO2F,-2.54773,1.36,na,0.0013,,,,,
JVASP-96183,KZrCuS3,-1.40915,0.692,na,0.0,,,,,
JVASP-99424,HoSnAu2,-0.71813,0.0,na,0.0063,,,,,
JVASP-15198,UTeN,-1.35005,0.0,0.0,0.0,,,,,
JVASP-105815,MgCdPd2,-0.57959,0.0,na,0.0042,,,,,
JVASP-18624,USnAu2,-0.27252,0.0,0.0,0.0,,,,,
JVASP-99472,Mg3Os,0.09425,0.0,0.0,0.0943,,,,,
JVASP-106013,PrHo,0.04253,0.0,0.0,0.0508,,,,,
JVASP-3171,RbUO3,-3.14635,0.528,2.779,0.0,,,,,
JVASP-99655,MnNiSe2,-0.29373,0.0,0.0,0.0635,,,,,
JVASP-3372,Rb2NiO2,-1.30766,1.002,na,0.0,,,,,
JVASP-21201,F,0.00607,2.299,3.609,0.0,,,,,
JVASP-106090,Er2Se3,-1.89835,0.28,0.925,0.0,,,,,
JVASP-93099,Mg6SiB,0.20702,0.0,na,0.3235,,,,,
JVASP-93796,PrCdNi4,-0.30489,0.0,na,0.0,,,,,
JVASP-93294,Li5Mg,-0.03165,0.0,na,0.0266,,,,,
JVASP-93893,NbNi2,-0.1832,0.0,na,0.0951,,,,,
JVASP-94889,UGa5Rh,-0.41291,0.0,na,0.0,,,,,
JVASP-18588,Li2AgPb,-0.28096,0.0,na,0.0146,,,,,
JVASP-99357,Sr3Li2,-0.00027,0.0,na,0.0001,,,,,
JVASP-15318,HoSi2Cu2,-0.54361,0.0,na,0.0,,,,,
JVASP-93693,CaAg2,-0.3564,0.0,na,0.0,,,,,
JVASP-93751,CaZnPb,-0.39448,0.0,na,0.0386,,,,,
JVASP-98995,BaTeMo2O9,-2.18066,2.761,na,0.0068,,,,,
JVASP-94361,Sr2Mg,0.04669,0.0,na,0.127,,,,,
JVASP-92577,CeGe2Au2,-0.49135,0.0,na,0.0066,,,,,
JVASP-11970,AlCo,-0.61841,0.0,na,0.0,,,,,
JVASP-99425,HoZr,0.08421,0.0,na,0.0843,,,,,
JVASP-105871,YbLuHg2,-0.48169,0.0,na,0.0062,,,,,
JVASP-15562,RbFeS2,-0.88178,0.0,na,0.0028,,,,,
JVASP-91448,SiO2,-2.77298,5.357,na,0.1283,,,,,
JVASP-93950,TiS,-1.4552,0.0,na,0.1222,,,,,
JVASP-99522,K2ScTlCl6,-1.86111,3.156,na,0.0641,,,,,
JVASP-91239,RbAsOF4,-2.31379,3.716,5.512,0.0,,,,,
JVASP-56321,RbTiBr3,-1.45434,0.0,na,0.0,,,,,
JVASP-105943,LiMoN2,-0.68329,0.0,na,0.0,,,,,
JVASP-96599,NaCdPO4,-2.11257,3.163,na,0.0088,,,,,
JVASP-15012,ScPd3,-0.87712,0.0,na,0.0075,,,,,
JVASP-92495,CeBPt3,-0.89136,0.0,na,0.0,,,,,
JVASP-92433,LaNi2As2,-0.82966,0.0,na,0.062,,,,,
JVASP-93797,CdClO,-0.56066,0.0,na,0.397,,,,,
JVASP-94402,MgTi,0.1274,0.0,na,0.1274,,,,,
JVASP-99473,PmSc3,0.06103,0.0,na,0.061,,,,,
JVASP-95572,NaNdS2O8,-2.15987,5.737,na,0.0,,,,,
JVASP-18495,CaNiN,-0.849,0.0,na,0.0137,,,,,
JVASP-3174,Ca3PN,-1.22284,0.821,1.549,0.0,,,,,
JVASP-108052,VPt,-0.31639,0.0,0.0,0.237,,,,,
JVASP-94304,LaInPt4,-0.8545,0.0,na,0.0,,,,,
JVASP-94814,USb2Au,-0.27087,0.0,na,0.0003,,,,,
JVASP-91304,Ce2Co17,-0.09096,0.0,na,0.011,,,,,
JVASP-96184,KZrCuSe3,-1.19015,0.342,na,0.0,,,,,
JVASP-18554,Ca3SiBr2,-1.24023,0.0,na,0.1245,,,,,
JVASP-106172,CrP2O7,-2.11602,0.0,0.0,0.0115,,,,,
JVASP-3321,ZnGa2Te4,-0.37016,0.99,1.741,0.0,,,,,
JVASP-99125,Mg3SiO4F2,-3.28147,5.495,na,0.0,,,,,
JVASP-96809,NaMnF3,-2.63437,1.609,1.669,0.0,,,,,
JVASP-106014,PdW,0.13861,0.0,na,0.4354,,,,,
JVASP-95287,Pr2Se2O,-2.57024,2.079,na,0.0176,,,,,
JVASP-93100,Mg6NbSi,0.12318,0.0,na,0.2744,,,,,
JVASP-95258,CrP2H15N2O11,-1.21838,2.472,na,0.0236,,,,,
JVASP-92363,PrSi2Au2,-0.58141,0.0,na,0.0,,,,,
JVASP-93528,MgCd2,-0.04932,0.0,na,0.0368,,,,,
JVASP-99610,MgNi3B,-0.28327,0.0,0.0,0.036,,,,,
JVASP-92769,CaCu2Si2,-0.40707,0.0,na,0.0,,,,,
JVASP-15495,CrNiAs,-0.14379,0.0,na,0.0285,,,,,
JVASP-99566,Na3CoF6,-2.50479,1.348,na,0.0,,,,,
JVASP-14932,TiB,-0.8227,0.0,na,0.0,,,,,
JVASP-94939,CoRh2Se4,-0.31616,0.0,na,0.0667,,,,,
JVASP-108154,Ca4GaSi3,-0.61146,0.0,0.0,0.0,,,,,
JVASP-107957,MgScAu2,-0.82548,0.0,0.0,0.0,,,,,
JVASP-106093,DyErMn4,0.07518,0.0,na,0.0912,,,,,
JVASP-95420,Na2TeO3,-1.64973,3.24,na,0.0,,,,,
JVASP-97000,Sm2Se3O9,-1.98711,3.818,na,0.0,,,,,
JVASP-93843,TbCu5,-0.21099,0.0,na,0.0029,,,,,
JVASP-18416,VH2,-0.2017,0.0,0.0,0.0,,,,,
JVASP-16099,Ta2Se,-0.44547,0.0,0.0,0.0,,,,,
JVASP-105722,Ba3Pm,0.1827,0.0,0.0,0.1827,,,,,
JVASP-1990,CoCl2,-0.56716,0.0,0.0,0.0,,,,,
JVASP-55136,Fe3PtN,-0.21956,0.0,0.0,0.0,,,,,
JVASP-93349,ThGeS,-1.51903,0.0,na,0.0,,,,,
JVASP-3741,BaHBr,-1.55781,3.417,4.435,0.0202,,,,,
JVASP-105816,MgAu5,-0.27614,0.0,na,0.0264,,,,,
JVASP-105681,Rb2AlInI6,-0.95346,1.085,1.138,0.0655,,,,,
JVASP-14157,SrFe2As2,-0.58403,0.0,0.0,0.0,,,,,
JVASP-92434,KCrF3,-2.66007,0.0,na,0.0565,,,,,
JVASP-93461,HoIO,-2.83543,2.177,na,0.0737,,,,,
JVASP-99358,MgTi2P2O10,-2.8364,3.165,na,0.0,,,,,
JVASP-99523,Na2TmAgCl6,-1.63416,2.698,na,0.1777,,,,,
JVASP-15356,SmSnAu,-0.8528,0.0,0.0,0.02,,,,,
JVASP-14747,ThS,-1.96301,0.0,0.0,0.0,,,,,
JVASP-96250,EuBrO,-3.10785,4.414,na,0.0,,,,,
JVASP-1771,TmAgTe2,-0.88959,0.701,1.257,0.0123,,,,,
JVASP-93245,YAgO3,-1.3135,0.0,na,0.7074,,,,,
JVASP-18878,CoHO2,-1.132,0.824,na,0.0133,,,,,
JVASP-93395,AlO2,-2.36535,0.0,na,0.3977,,,,,
JVASP-19845,DySe,-1.81219,0.0,na,0.0,,,,,
JVASP-105873,Tm5Mg,0.0191,0.0,na,0.0417,,,,,
JVASP-99697,K2CuSbI6,-0.71053,0.058,na,0.0915,,,,,
JVASP-96935,RbLi7Si2O8,-2.5181,5.219,na,0.0,,,,,
JVASP-95090,SrLiFeF6,-2.9993,0.0,0.0,0.104,,,,,
JVASP-94306,CuAgS,-0.1348,0.445,na,0.0406,,,,,
JVASP-108156,BaSnF4,-3.21048,3.952,na,0.0771,,,,,
JVASP-91449,Lu2O3,-3.92547,4.359,na,0.0374,,,,,
JVASP-94362,Mg5Ti,0.0779,0.0,na,0.0779,,,,,
JVASP-93894,NdScSb,-0.87236,0.0,na,0.0,,,,,
JVASP-19889,NbC,-0.52754,0.0,0.0,0.0145,,,,,
JVASP-92535,ThSi2Ir2,-0.90483,0.0,na,0.1735,,,,,
JVASP-95767,EuF3,-4.36569,8.097,9.426,0.0,,,,,
JVASP-51104,HgP2Se,0.77963,0.0,na,0.8021,,,,,
JVASP-92673,BaCd2Ge2,-0.39251,0.0,na,0.0,,,,,
JVASP-99475,Rb2AgAsF6,-2.30169,2.376,3.754,0.0147,,,,,
JVASP-99611,ZrNbCo4,-0.25091,0.0,na,0.0296,,,,,
JVASP-14818,Nb,0.0,0.0,0.0,0.0,,,,,
JVASP-11972,MgCo,-0.04187,0.0,na,0.004,,,,,
JVASP-96878,Na5P3H2O11,-2.01982,0.398,na,0.1465,,,,,
JVASP-92367,NaPF3,-2.16192,0.0,na,0.3088,,,,,
JVASP-92715,Fe4C,0.19542,0.0,na,0.199,,,,,
JVASP-18446,Cr2NiS4,-0.64327,0.0,0.0,0.0376,,,,,
JVASP-107959,Na3Ca,0.0516,0.0,na,0.0649,,,,,
JVASP-106016,NiTeSe,-0.25279,0.0,na,0.0119,,,,,
JVASP-17350,AlBiO3,-0.63997,0.0,0.0,1.7128,,,,,
JVASP-94844,UGa5Os,-0.26457,0.0,na,0.0,,,,,
JVASP-18791,ThSn2,-0.55546,0.0,na,0.0,,,,,
JVASP-91370,NbSbO4,-2.23092,2.554,na,0.0,,,,,
JVASP-15199,USi2Pt2,-0.63858,0.0,0.0,0.0134,,,,,
JVASP-93798,LuCdNi4,-0.41596,0.0,na,0.0,,,,,
JVASP-99751,Ba3Li,0.11878,0.0,na,0.1338,,,,,
JVASP-15611,TmB2Ru3,-0.46305,0.0,na,0.0,,,,,
JVASP-106173,NbCrF6,-2.71759,0.0,na,0.0558,,,,,
JVASP-94403,Mg2Sb,-0.01253,0.0,na,0.3466,,,,,
JVASP-91306,Sr2InSbO6,-2.37017,1.961,na,0.0,,,,,
JVASP-91243,SrZrSi2O7,-3.27102,4.949,na,0.009,,,,,
JVASP-3945,Ca3AsCl3,-2.13724,1.713,2.469,0.0,,,,,
JVASP-99426,LiPr2Rh,-0.33221,0.0,0.0,0.0726,,,,,
JVASP-93951,VO2,-2.55138,0.0,na,0.0084,,,,,
JVASP-97001,CaAlBO4,-3.13208,4.928,na,0.0192,,,,,
JVASP-99375,Li2CaTl,-0.28355,0.0,0.0,0.008,,,,,
JVASP-92622,Ho2BiO2,-2.88289,0.0,na,0.0,,,,,
JVASP-94890,Sm2Cr2C3,-0.32763,0.0,na,0.0,,,,,
JVASP-92435,KMnF3,-2.70239,1.526,na,0.0165,,,,,
JVASP-105944,KIn2Ga2,-0.18612,0.0,na,0.0,,,,,
JVASP-96743,Nb2ZnO6,-2.49487,3.241,na,0.0,,,,,
JVASP-93752,ErAlZn,-0.47195,0.0,na,0.005,,,,,
JVASP-16229,ErSe2,-1.61053,0.0,na,0.0,,,,,
JVASP-105723,BaSrTl2,-0.47894,0.0,na,0.0159,,,,,
JVASP-99525,K2DyCuCl6,-1.8413,2.599,na,0.0401,,,,,
JVASP-92771,CeSi2Ir2,-0.85197,0.0,na,0.1526,,,,,
JVASP-94943,Pu2W2C3,-0.25189,0.0,na,0.2113,,,,,
JVASP-99846,Sr2ZnIn,-0.39951,0.0,na,0.001,,,,,
JVASP-98997,CaV2O5,-2.80156,0.3,na,0.0447,,,,,
JVASP-99126,SrZrP2O8,-2.97159,4.316,na,0.0,,,,,
JVASP-48292,Li3Fe2Si2O8,-2.24774,0.0,na,0.0727,,,,,
JVASP-92578,Tb2BiO2,-2.86386,0.0,na,0.0,,,,,
JVASP-93698,In2Bi,-0.00249,0.0,na,0.001,,,,,
JVASP-15563,U2PN2,-1.52425,0.0,0.01,0.0,,,,,
JVASP-99359,PSN9,0.52341,3.007,na,0.6097,,,,,
JVASP-99656,Mg6SiGe2,-0.30283,0.376,0.643,0.0,,,,,
JVASP-99567,K2CuMoI6,-0.60325,0.188,0.644,0.0601,,,,,
JVASP-96258,K3B12H12Br,-0.48766,5.142,na,0.0,,,,,