jid,formula,formation_energy_per_atom,optb88vdw_bandgap,mbj_bandgap,ehull,spacegroup_number,natoms,volume,bulk_modulus_kv,shear_modulus_gv
JVASP-100865,Mn2FeO6,-1.58063,0.0,na,0.0,,,,,
JVASP-96962,NaNpCO5,-2.35242,0.075,na,0.0,,,,,
JVASP-2661,Al2HgS4,-0.90854,2.075,3.031,0.0,,,,,
JVASP-99874,CrFeAs,-0.03887,0.0,na,0.0877,,,,,
JVASP-102867,TbK2CuCl6,-1.83757,2.592,na,0.0467,,,,,
JVASP-107809,K2RbAlI6,-1.09398,1.926,2.769,0.129,,,,,
JVASP-15133,NdB2Rh3,-0.655,0.0,na,0.0,,,,,
JVASP-48348,V6O11F,-2.5982,0.0,na,0.0167,,,,,
JVASP-99830,PrNdIr2,-0.64431,0.0,na,0.0698,,,,,
JVASP-101267,Hg,0.21763,0.064,0.0,0.0,,,,,
JVASP-100480,MnCuO3,-1.37896,0.0,na,0.0044,,,,,
JVASP-100603,HoMg2,-0.05685,0.0,0.0,0.014,,,,,
JVASP-102154,Sc6Te2Ir,-0.86711,0.0,0.0,0.0,,,,,
JVASP-102207,In3CuSe5,-0.47697,0.203,na,0.0098,,,,,
JVASP-100995,LiSm2Ga,-0.3233,0.0,0.0,0.0,,,,,
JVASP-42888,Tc3Rh,-0.16272,0.0,na,0.0,,,,,
JVASP-11950,Al3Ni2,-0.64801,0.0,na,0.0,,,,,
JVASP-100233,Tb3Hg,-0.12278,0.0,na,0.0731,,,,,
JVASP-103040,ThUSb4,-0.53743,0.0,0.0,0.0022,,,,,
JVASP-101041,ZnInRh2,-0.40718,0.0,0.0,0.0,,,,,
JVASP-100022,CeAs2Au,-0.80008,0.0,na,0.0,,,,,
JVASP-101454,NbRh2,-0.38027,0.0,na,0.1038,,,,,
JVASP-92690,LaGe3Os,-0.52993,0.0,na,0.0,,,,,
JVASP-100145,AlFe2Ge,-0.20755,0.0,na,0.022,,,,,
JVASP-101153,MnCuAg2O4,-0.97474,0.0,na,0.0,,,,,
JVASP-101100,Ti3ZnHg4,0.13471,0.0,na,0.2025,,,,,
JVASP-97027,FeSe,-0.28323,0.0,na,0.0078,,,,,
JVASP-42455,LiVF4,-3.04717,0.0,na,0.0264,,,,,
JVASP-101593,Nb3Cu,0.15133,0.0,na,0.1513,,,,,
JVASP-15119,TmAgSn,-0.54285,0.0,na,0.0158,,,,,
JVASP-99966,LiGaO2,-1.99287,1.059,2.715,0.1932,,,,,
JVASP-3942,ThIN,-1.92817,2.824,2.911,0.0,,,,,
JVASP-28384,SmCoP,-0.9461,0.0,na,0.1703,,,,,
JVASP-99325,Rb2CoCl4,-1.48066,0.722,na,0.0001,,,,,
JVASP-99675,KTlBr3,-1.02695,0.0,na,0.112,,,,,
JVASP-18925,Be5Pd,-0.29906,0.0,0.0,0.0,,,,,
JVASP-100420,Cd5TeS4,-0.59818,0.397,na,0.02,,,,,
JVASP-42153,AgBO3,-1.2481,0.0,na,0.1111,,,,,
JVASP-99783,Hf2RePd,-0.58855,0.0,0.0,0.0,,,,,
JVASP-100780,ZrTiN2,-1.87122,0.0,na,0.0513,,,,,
JVASP-100735,Mg2IrAu,-0.51053,0.0,0.0,0.0,,,,,
JVASP-92731,Al3Ru2,-0.68511,0.0,na,0.0,,,,,
JVASP-12158,Y2GeI2,-1.32016,0.222,na,0.0,,,,,
JVASP-99502,TaNb,0.00141,0.0,na,0.0167,,,,,
JVASP-101691,Ta3Ru,-0.11789,0.0,na,0.0975,,,,,
JVASP-100867,LiCuS,-0.82307,1.039,na,0.0256,,,,,
JVASP-103382,Lu2SnAu2,-0.67123,0.0,na,0.2132,,,,,
JVASP-103290,Pd3I,0.18906,0.0,na,0.2718,,,,,
JVASP-100280,ErMn2SiC,-0.5312,0.0,na,0.0,,,,,
JVASP-101214,CeAlCu2Ni2,-0.40855,0.0,na,0.0,,,,,
JVASP-100824,MgIn,-0.08749,0.0,na,0.0266,,,,,
JVASP-99449,KNaMg2F6,-3.46922,6.906,10.441,0.0274,,,,,
JVASP-103210,KRb2RuF6,-2.53798,0.0,0.0,0.0,,,,,
JVASP-100328,UMnAl,-0.15471,0.0,na,0.0,,,,,
JVASP-99739,AlCoO3,-2.18734,1.155,na,0.031,,,,,
JVASP-107810,K2NaNdF6,-3.40997,6.139,9.447,0.0831,,,,,
JVASP-101403,Li2CdAg,-0.26977,0.0,na,0.0,,,,,
JVASP-100234,Tb3Er,0.01224,0.0,na,0.0132,,,,,
JVASP-99636,Ca3Dy,0.12417,0.0,na,0.138,,,,,
JVASP-99875,CaInI3,-1.24131,2.929,na,0.0094,,,,,
JVASP-53577,Co2RhS4,-0.51329,0.0,na,0.028,,,,,
JVASP-100996,Tb3Li,0.16211,0.0,na,0.1623,,,,,
JVASP-100183,Ir3Rh,-0.01295,0.0,na,0.0147,,,,,
JVASP-100648,MnPt2,0.00518,0.0,0.0,0.2928,,,,,
JVASP-99546,Ba2ZnMoO6,-2.57812,2.299,na,0.0,,,,,
JVASP-18794,SrTl2,-0.37709,0.0,na,0.0127,,,,,
JVASP-99831,PaInNi2,-0.33075,0.0,na,0.0,,,,,
JVASP-15320,BaAs2Ru2,-0.6751,0.0,0.0,0.0,,,,,
JVASP-15789,BaAgAs,-0.84829,0.0,na,0.0,,,,,
JVASP-100072,TaOF3,-3.19443,2.831,4.236,0.0494,,,,,
JVASP-106349,MnZnSe2,-0.48472,0.327,na,0.0488,,,,,
JVASP-4173,AuCl,-0.18569,1.73,2.493,0.0,,,,,
JVASP-101643,YbCd2As2,-0.64722,0.079,0.95,0.0,,,,,
JVASP-101536,AlGe3,0.26431,0.0,na,0.2654,,,,,
JVASP-99918,TlBiPbS3,-0.50922,0.245,0.49,0.0462,,,,,
JVASP-101456,Mn2SbTe,0.03681,0.0,na,0.1073,,,,,
JVASP-51237,SrCrPd2,0.10231,0.0,0.0,0.6383,,,,,
JVASP-99676,K3NdI6,-1.39812,3.215,na,0.0981,,,,,
JVASP-100540,TbAlNi4,-0.56279,0.0,na,0.0,,,,,
JVASP-100481,LiMnF3,-2.60071,2.61,na,0.1166,,,,,
JVASP-14946,VTc,-0.35962,0.0,0.0,0.0077,,,,,
JVASP-43832,LiFeF3,-2.41169,0.0,0.0,0.0737,,,,,
JVASP-96847,Nb2NiO6,-2.30931,0.985,na,0.0,,,,,
JVASP-99967,LiUI6,-0.90806,0.634,na,0.0,,,,,
JVASP-99784,Ho2MgOs,-0.2444,0.0,na,0.0303,,,,,
JVASP-15457,YbMn2Sb2,-0.13698,0.0,0.0,0.2694,,,,,
JVASP-20079,TaB,-0.7655,0.0,0.0,0.0,,,,,
JVASP-103113,CeCoCuSi2,-0.56713,0.0,na,0.0543,,,,,
JVASP-2895,Ho2CF2,-2.62305,1.168,2.165,0.0,,,,,
JVASP-99327,SiCl2O,-1.82586,5.556,na,0.0,,,,,
JVASP-1939,HgCl,-0.40002,2.253,3.249,0.0,,,,,
JVASP-100369,Na4SrCaSi2,-0.12903,0.188,0.643,0.1619,,,,,
JVASP-100024,Cd4Te3Se,-0.44739,0.366,na,0.0091,,,,,
JVASP-4077,K4HgAs2,-0.46257,0.787,na,0.0,,,,,
JVASP-16060,TmSi2Rh2,-1.0437,0.0,0.0,0.0,,,,,
JVASP-107813,K2RbAsCl6,-1.44932,3.41,na,0.0856,,,,,
JVASP-100736,Mg5Ag,-0.06776,0.0,na,0.0297,,,,,
JVASP-15102,LiAg2Sn,-0.22139,0.0,na,0.0,,,,,
JVASP-102156,RbAs2Ir2,-0.45053,0.0,na,0.0,,,,,
JVASP-101155,MnV2Si6,-0.27564,0.0,na,0.0198,,,,,
JVASP-100825,LiTiO2,-2.84414,0.0,na,0.031,,,,,
JVASP-100868,SmI3,-1.35631,1.614,2.455,0.0,,,,,
JVASP-101594,NbGaOs2,-0.22354,0.0,na,0.0,,,,,
JVASP-100235,Tb3Zr,0.08643,0.0,0.0,0.0864,,,,,
JVASP-100329,U2TeSe,-0.7168,0.0,na,0.0777,,,,,
JVASP-15234,NdPPd,-1.26675,0.0,0.0,0.0,,,,,
JVASP-14572,UC2,-0.22706,0.0,0.0,0.0,,,,,
JVASP-15997,ReSi,-0.17569,0.0,0.0,0.0,,,,,
JVASP-99450,Fe2Si,-0.24287,0.0,na,0.0738,,,,,
JVASP-100423,CaSm2S3,-2.23801,0.0,na,0.0028,,,,,
JVASP-45135,Mn3TeO8,-1.54762,0.0,0.0,0.0856,,,,,
JVASP-99403,NaBiSe2,-0.68283,0.022,0.121,0.1176,,,,,
JVASP-100281,LaMg2Ag,-0.11834,0.0,na,0.1442,,,,,
JVASP-100938,GaHgO2,-1.19228,0.0,na,0.12,,,,,
JVASP-103383,ZrTiC2,-0.88399,0.0,0.0,0.0596,,,,,
JVASP-103291,Pm2GaCu,-0.39287,0.0,na,0.0,,,,,
JVASP-102870,K2ScAuCl6,-1.66532,1.962,na,0.0874,,,,,
JVASP-99590,Na2LiAsF6,-2.5777,4.508,5.643,0.1136,,,,,
JVASP-102099,Li2Ti2Sb2O,-1.23556,0.0,na,0.0,,,,,
JVASP-14674,SmPd3,-0.85736,0.0,0.0,0.0078,,,,,
JVASP-93815,IrC2,1.38847,0.0,na,1.3906,,,,,
JVASP-15660,SrCu2O3,-1.51706,0.0,na,0.0252,,,,,
JVASP-103042,Te3Mo2Se,-0.32887,0.64,0.757,0.0195,,,,,
JVASP-99740,Te,0.03875,0.0,na,0.0,,,,,
JVASP-101692,SrLaMnO4,-2.94427,0.0,na,0.0165,,,,,
JVASP-101477,LiCaSb,-0.89093,0.719,0.967,0.1366,,,,,
JVASP-101404,LaLuMg2,-0.07049,0.0,na,0.0236,,,,,
JVASP-102954,LiDy2Pt,-0.69576,0.0,0.0,0.0608,,,,,
JVASP-103521,Al2CO,-1.3877,1.944,2.904,0.1351,,,,,
JVASP-100604,In3Ga,0.03054,0.0,na,0.0345,,,,,
JVASP-100146,Al3Sn,0.16187,0.0,na,0.1619,,,,,
JVASP-99832,Pm2MgGe,-0.38528,0.0,na,0.0,,,,,
JVASP-99785,Ho2AgOs,-0.40311,0.0,na,0.0,,,,,
JVASP-100781,ZrMnCu2Se4,-0.53242,0.0,na,0.1722,,,,,
JVASP-101215,CeCoRh,-0.56042,0.0,na,0.0,,,,,
JVASP-15360,PrCo2B2,-0.50618,0.0,0.0,0.0,,,,,
JVASP-92732,ErAu4,-0.64557,0.0,na,0.0,,,,,
JVASP-51108,HgPRh,0.9071,0.0,0.0,1.351,,,,,
JVASP-100074,Rb2RhAuF6,-1.97521,0.646,na,0.1704,,,,,
JVASP-102280,Ho2AgHg,-0.38984,0.0,0.0,0.0,,,,,
JVASP-101044,Zr3Si,-0.357,0.0,0.0,0.1956,,,,,
JVASP-57577,TiFeBi2O6,-1.86438,0.0,0.0,0.0787,,,,,
JVASP-99677,K2TlGaI6,-0.80587,0.323,na,0.1476,,,,,
JVASP-100482,CdCoCu3Se4,-0.12736,0.0,na,0.1498,,,,,
JVASP-22716,K2GeF6,-2.89396,5.966,8.502,0.0,,,,,
JVASP-103114,CdSnAu,0.0258,0.0,na,0.22,,,,,
JVASP-97028,FeTe,-0.02602,0.0,na,0.1057,,,,,
JVASP-52373,BaYBr5,-2.04762,3.412,3.918,0.084,,,,,
JVASP-2664,Al2ZnSe4,-0.89915,2.293,3.863,0.0,,,,,
JVASP-107815,K2YAuBr6,-1.44956,1.673,na,0.1195,,,,,
JVASP-99876,TbSiOs2C,-0.52101,0.0,na,0.0,,,,,
JVASP-99968,LiNbO2F,-2.61387,0.0,na,0.235,,,,,
JVASP-100236,TbGaAu2,-0.69757,0.0,na,0.0288,,,,,
JVASP-99503,Sr2ZnP2,-0.91498,0.0,0.315,0.0444,,,,,
JVASP-100869,Rb2TmAgCl6,-1.92365,3.524,na,0.0,,,,,
JVASP-16126,Y2Al3Si2,-0.56244,0.0,0.0,0.0,,,,,
JVASP-100827,LaHg3,-0.01601,0.0,na,0.3032,,,,,
JVASP-99404,Mn2InCu4Sn,0.13739,0.0,na,0.1436,,,,,
JVASP-2427,GaAgS2,-0.54986,0.937,2.36,0.0028,,,,,
JVASP-1942,KI,-1.58223,4.092,6.384,0.0,,,,,
JVASP-100998,MgZrPt2,-1.04641,0.0,0.0,0.0,,,,,
JVASP-102871,K2PrAgCl6,-1.79932,3.25,na,0.1004,,,,,
JVASP-15103,TbBaO3,-2.93433,0.0,na,0.1482,,,,,
JVASP-102208,HfAlZn,-0.3556,0.0,0.0,0.0,,,,,
JVASP-54761,NaHO,-1.42533,3.8,6.853,0.0,,,,,
JVASP-101595,NbSiRu2,-0.34514,0.0,na,0.0902,,,,,
JVASP-101695,SmPaO4,-3.96581,2.691,na,0.0,,,,,
JVASP-15404,CeSi2Ni2,-0.75914,0.0,na,0.0,,,,,
JVASP-99591,K2RbBiF6,-2.67776,4.334,6.559,0.1066,,,,,
JVASP-100939,VSnRh2,-0.29006,0.0,na,0.1052,,,,,
JVASP-100184,HI3,0.04915,0.994,1.77,0.0495,,,,,
JVASP-100737,Mn3Os,-0.01574,0.0,na,0.0,,,,,
JVASP-100370,MoPdRu2,0.07193,0.0,na,0.1298,,,,,
JVASP-103386,ZrNb,0.09741,0.0,na,0.0974,,,,,
JVASP-99919,TiCrS2,-1.04314,0.0,0.0,0.0877,,,,,
JVASP-103587,Ba2InHg,-0.5108,0.0,na,0.0,,,,,
JVASP-99786,Ho2AgAu,-0.6635,0.0,na,0.0038,,,,,
JVASP-101158,MnIn2Te4,-0.23656,0.13,0.693,0.023,,,,,
JVASP-107816,K2ErCuCl6,-1.86136,2.454,na,0.0,,,,,
JVASP-15790,SrCo2Ge2,-0.47569,0.0,na,0.0,,,,,
JVASP-12195,NiO2,-0.81827,0.82,na,0.0145,,,,,
JVASP-96910,Nb3CuO8,-2.4293,0.743,na,0.0141,,,,,
JVASP-102157,Y3Si2Ni2,-0.73644,0.0,na,0.023,,,,,
JVASP-100542,SrCeAlO4,-3.38006,0.0,na,0.0,,,,,
JVASP-100026,CaLaGaO4,-2.97035,3.511,na,0.0642,,,,,
JVASP-15321,CaCuAs,-0.88164,0.127,0.316,0.0,,,,,
JVASP-103043,TbZr3,0.05351,0.0,na,0.0535,,,,,
JVASP-102331,MoPt,-0.17962,0.0,0.0,0.1535,,,,,
JVASP-99678,K2RbInBr6,-1.34762,2.647,na,0.1162,,,,,
JVASP-99547,KAs2Ir2,-0.4444,0.0,0.0,0.0,,,,,
JVASP-103212,KCuH3,-0.07409,0.0,na,0.0567,,,,,
JVASP-14979,BaGe2,-0.57072,0.0,na,0.0567,,,,,
JVASP-101537,AcMg3,-0.06783,0.0,0.0,0.0133,,,,,
JVASP-100605,La2TlAg,-0.37671,0.0,na,0.0334,,,,,
JVASP-100649,MnCrSi2,-0.24555,0.0,0.0,0.0401,,,,,
JVASP-101101,Ti5CN4,-1.7256,0.0,na,0.0,,,,,
JVASP-103295,PmHf,0.2445,0.0,na,0.2445,,,,,
JVASP-106368,CrFeAs4,-0.15268,0.0,0.0,0.021,,,,,
JVASP-99741,Rb2Pd,-0.00012,0.977,0.974,0.0201,,,,,
JVASP-100424,CaBiNO5,-1.35772,2.331,na,0.1081,,,,,
JVASP-99452,CdHgSe2,-0.28857,0.0,0.676,0.0175,,,,,
JVASP-11953,NbNi3,-0.30191,0.0,na,0.0088,,,,,
JVASP-100331,TiBi2O4F2,-2.3385,1.381,na,0.0749,,,,,
JVASP-99969,Li2MgAu,-0.48428,0.0,na,0.0142,,,,,
JVASP-100828,KBiS2,-0.93108,1.642,2.243,0.0,,,,,
JVASP-99833,Pm3Nd,0.00788,0.0,na,0.0186,,,,,
JVASP-97029,KFe2As2,-0.34248,0.0,na,0.0107,,,,,
JVASP-101749,As2S,0.02341,0.0,0.0,0.1261,,,,,
JVASP-102100,BaPdO3,-1.50902,0.0,na,0.0373,,,,,
JVASP-100237,TbHoHg2,-0.38579,0.0,na,0.0062,,,,,
JVASP-101046,TlSnI3,-0.61823,1.726,2.115,0.0,,,,,
JVASP-50953,Ba2SrI6,-1.7689,3.572,4.484,0.0952,,,,,
JVASP-100283,NdIn,-0.51261,0.0,0.0,0.0124,,,,,
JVASP-99877,CaTlI3,-1.30639,3.272,na,0.0,,,,,
JVASP-16206,GeSb,0.14253,0.0,0.0,0.1425,,,,,
JVASP-96964,AlH3O3,-1.81194,4.675,na,0.0379,,,,,
JVASP-103534,HfPbN2,-0.87236,0.849,1.436,0.2201,,,,,
JVASP-15280,SmSi2Rh2,-1.04929,0.0,0.0,0.0,,,,,
JVASP-102955,LiZnCu2,-0.13218,0.0,na,0.0282,,,,,
JVASP-18499,CaB2Rh3,-0.62915,0.0,na,0.0,,,,,
JVASP-52837,SnH8N2Cl6,-0.69956,2.283,na,0.0149,,,,,
JVASP-107837,Na2LiSbCl6,-1.37141,2.965,na,0.1528,,,,,
JVASP-15235,MnAlCu2,-0.08644,0.0,0.0,0.0765,,,,,
JVASP-101405,LiTiPd2,-0.55021,0.0,na,0.0,,,,,
JVASP-16028,TlCu4S3,-0.26039,0.0,na,0.001,,,,,
JVASP-2898,RbTeAu,-0.70891,1.032,1.83,0.0011,,,,,
JVASP-99405,LaMn2CdO6,-2.23047,0.0,na,0.0204,,,,,
JVASP-101458,MnGaPd2,-0.27374,0.0,0.0,0.1782,,,,,
JVASP-102281,KMg3,0.1386,0.0,0.0,0.1408,,,,,
JVASP-101596,PmNd3,-0.00561,0.0,na,0.0061,,,,,
JVASP-100185,K3Mg,0.08149,0.0,na,0.0879,,,,,
JVASP-42155,Li2VO2F,-2.61428,0.0,na,0.1196,,,,,
JVASP-100782,YbAlCu4,-0.29607,0.0,na,0.0574,,,,,
JVASP-18418,Cr3O,0.3032,0.0,na,1.1805,,,,,
JVASP-100075,Li3AsF6,-2.45669,4.278,na,0.3359,,,,,
JVASP-99787,Ho2ZnGa,-0.51024,0.0,na,0.0004,,,,,
JVASP-50476,Ca2Ti6N2O11,-2.9718,1.985,na,0.0942,,,,,
JVASP-107839,Rb2AgAsCl6,-1.26467,1.277,na,0.0,,,,,
JVASP-99328,V2O3,-2.41793,0.0,na,0.0666,,,,,
JVASP-42459,Dy2V2O7,-3.14076,0.297,na,0.0736,,,,,
JVASP-51109,ScVFe,0.55622,0.0,na,0.753,,,,,
JVASP-1945,RbI,-1.5921,3.969,5.813,0.0,,,,,
JVASP-99679,K2RbDyCl6,-2.1064,4.528,na,0.0975,,,,,
JVASP-100027,CaEuH6Ru,-0.56961,0.0,na,0.015,,,,,
JVASP-101645,YbZn2Ga2,-0.4404,0.0,0.0,0.0,,,,,
JVASP-100484,CoPd3,0.05931,0.0,0.0,0.0622,,,,,
JVASP-18556,Na3Li3N2,-0.1687,0.036,1.182,0.1686,,,,,
JVASP-99504,SmYNi2,-0.48635,0.0,0.0,0.0005,,,,,
JVASP-102332,LaSmS2,-2.27233,0.0,na,0.0,,,,,
JVASP-103393,Zr2Al3Ni,-0.58005,0.0,na,0.026,,,,,
JVASP-99592,K2HgAsBr6,-0.89745,0.0,na,0.0766,,,,,
JVASP-50374,Li2TiTeO6,-2.16201,2.34,na,0.0,,,,,
JVASP-18425,LiTiO2,-2.83883,0.0,na,0.0363,,,,,
JVASP-20080,NiGe,-0.28598,0.0,na,0.0,,,,,
JVASP-101696,SnTe2Pd6,-0.38071,0.0,na,0.0,,,,,
JVASP-15568,TbFe2Si2,-0.66743,0.0,na,0.0,,,,,
JVASP-103588,Yb3Ba,0.02374,0.0,na,0.0237,,,,,
JVASP-99548,Sc6MnTe2,-0.62404,0.0,na,0.0,,,,,
JVASP-103298,PmPrHg2,-0.38116,0.0,na,0.0075,,,,,
JVASP-101216,CdInAsSe,-0.4004,0.0,0.816,0.005,,,,,
JVASP-44587,Cr3SbO8,-1.82748,0.0,na,0.1312,,,,,
JVASP-2667,Al2ZnTe4,-0.50712,1.699,2.475,0.0,,,,,
JVASP-28966,MoW3Se6S2,-0.63388,0.548,na,0.1045,,,,,
JVASP-103115,CdAg2SnSe4,-0.25459,0.0,0.023,0.0704,,,,,
JVASP-99920,Ti2Si6Mo,-0.41074,0.0,na,0.0118,,,,,
JVASP-102158,La2MgNbO6,-3.169,0.0,na,0.1532,,,,,
JVASP-102210,Dy2Fe3Ni,-0.19797,0.0,na,0.0531,,,,,
JVASP-20102,Zr2Fe,-0.20232,0.0,na,0.0,,,,,
JVASP-48298,LiCoNiO4,-1.32854,0.034,0.0,0.106,,,,,
JVASP-99743,MgAlCu3Se4,-0.46632,0.043,na,0.1748,,,,,
JVASP-99970,LaMnNi4,-0.23359,0.0,na,0.0486,,,,,
JVASP-101102,TePb3Cl2O4,-1.33569,2.126,na,0.0,,,,,
JVASP-101539,AsNO2F6,-1.5131,3.241,4.3,0.0,,,,,
JVASP-103044,TbBeCu4,-0.17035,0.0,na,0.0557,,,,,
JVASP-100940,V2CoO6,-2.10583,0.0,na,0.0044,,,,,
JVASP-100284,Lu3InC,-0.6275,0.0,0.0,0.0,,,,,
JVASP-99878,Sm2Bi,-0.66818,0.0,na,0.0,,,,,
JVASP-100238,TbMg3,-0.06905,0.0,na,0.0073,,,,,
JVASP-100870,CaMg3,-0.09936,0.0,0.0,0.007,,,,,
JVASP-99453,BaSrBiSbO6,-2.22683,2.076,na,0.0043,,,,,
JVASP-100669,Ca2Mg,-0.0706,0.0,na,0.0124,,,,,
JVASP-100738,MgSb2,-0.06854,0.0,na,0.1709,,,,,
JVASP-100147,Ag3Au,-0.0428,0.0,na,0.0145,,,,,
JVASP-101750,AgPd2Au,-0.05287,0.0,na,0.0225,,,,,
JVASP-15017,HoGa3,-0.51357,0.0,na,0.0182,,,,,
JVASP-100425,Ce2In3Sn3,-0.49993,0.0,na,0.0,,,,,
JVASP-101406,LiLuRh2,-0.64698,0.0,na,0.0019,,,,,
JVASP-102962,Na3Mg,0.05297,0.0,na,0.0621,,,,,
JVASP-100783,Zr2Cu3Sb3,-0.21252,0.0,na,0.1727,,,,,
JVASP-15791,SrZn2Ge2,-0.40536,0.0,na,0.0,,,,,
JVASP-15322,ScCo2Si2,-0.7514,0.0,0.0,0.0,,,,,
JVASP-102873,K2AlInBr6,-1.28494,1.911,2.081,0.1378,,,,,
JVASP-101159,MgTa2N3,-1.2569,0.0,na,0.13,,,,,
JVASP-107850,Rb2ScAgF6,-3.12145,3.17,4.565,0.0,,,,,
JVASP-100371,Mo2AsP3,-0.43057,0.0,na,0.0353,,,,,
JVASP-100076,K3GaCl6,-1.65126,3.457,na,0.11,,,,,
JVASP-101478,TbBiPd2,-0.75706,0.0,0.0,0.0753,,,,,
JVASP-4080,PdSe2Br6,-0.19774,1.19,1.244,0.0,,,,,
JVASP-100829,K5Sb4,-0.5289,0.0,0.0,0.0,,,,,
JVASP-102101,NaGa,-0.05966,0.0,na,0.043,,,,,
JVASP-101598,Pm2AgHg,-0.36207,0.0,na,0.0,,,,,
JVASP-101459,Mg6SiSn2,-0.23131,0.059,na,0.0118,,,,,
JVASP-101047,TbBa2MoO6,-3.07144,0.0,na,0.0,,,,,
JVASP-2430,ZnGa2S4,-0.80653,2.295,3.864,0.0,,,,,
JVASP-18627,BaZnBi2,-0.53842,0.0,na,0.0,,,,,
JVASP-99788,Hf3Sc,-0.01342,0.0,na,0.013,,,,,
JVASP-97030,KFe2Se2,-0.50915,0.0,0.0,0.0612,,,,,
JVASP-16207,USbSe,-0.8289,0.0,0.0,0.0,,,,,
JVASP-107851,Rb2ErAuCl6,-1.77351,1.939,na,0.0257,,,,,
JVASP-99680,K2NaTaI6,-0.89589,0.0,na,0.1778,,,,,
JVASP-100545,SnTePbSe,-0.40503,0.126,0.328,0.0612,,,,,
JVASP-15281,Zr2AlC,-0.72286,0.0,na,0.0046,,,,,
JVASP-103400,VAu,0.19688,0.0,0.0,0.23,,,,,
JVASP-103216,SiSe2,-0.37086,1.718,na,0.0001,,,,,
JVASP-103589,Ca2HgBi,-0.70558,0.0,0.0,0.0,,,,,
JVASP-53578,Tb2PbS4,-1.74152,2.235,2.701,0.0612,,,,,
JVASP-102333,KFeSeS,-0.7902,0.0,na,0.0223,,,,,
JVASP-100606,LiSc2Ga,-0.35172,0.0,0.0,0.0224,,,,,
JVASP-101647,HoPd2Pb,-0.72185,0.0,0.0,0.0273,,,,,
JVASP-2901,RbAuS,-0.8456,2.173,3.313,0.01,,,,,
JVASP-100650,LiInO2,-1.88329,2.039,3.623,0.0,,,,,
JVASP-96966,K3NaSn3Se8,-0.81321,1.322,na,0.0,,,,,
JVASP-100186,In3Pb,0.01938,0.0,na,0.0261,,,,,
JVASP-103303,Sc2CoPt,-0.86175,0.0,na,0.0064,,,,,
JVASP-99921,ThUS2,-1.67636,0.0,na,0.0734,,,,,
JVASP-103117,Cd3FeS4,-0.5285,0.0,na,0.1196,,,,,
JVASP-49798,Li2CuPO4,-2.09695,1.577,na,0.0327,,,,,
JVASP-19910,CoPt,-0.07007,0.0,0.0,0.0025,,,,,
JVASP-101697,Rb5Bi4,-0.4467,0.0,0.0,0.0,,,,,
JVASP-99593,K2YAuF6,-2.85747,1.256,3.324,0.2609,,,,,
JVASP-99971,LaMnAlNi3,-0.36642,0.0,na,0.0607,,,,,
JVASP-99834,PmDy3,0.01869,0.0,na,0.0224,,,,,
JVASP-99505,SbPbS2,-0.3202,0.0,0.0,0.1486,,,,,
JVASP-100332,Ti2AlCr,-0.25412,0.0,na,0.0123,,,,,
JVASP-101540,BaEuO3,-3.54525,0.0,na,0.0,,,,,
JVASP-103538,CrClO,-1.67097,0.496,na,0.0111,,,,,
JVASP-18557,Sc2C,-0.50408,0.0,na,0.0,,,,,
JVASP-15710,SrSb2Pd2,-0.73665,0.0,na,0.0281,,,,,
JVASP-100077,K3SbI6,-0.94869,2.441,na,0.1393,,,,,
JVASP-100784,YbHo2Se4,-2.00704,1.089,1.825,0.0,,,,,
JVASP-101407,Lu2TlZn,-0.30479,0.0,0.0,0.0,,,,,
JVASP-3522,ZnCl2,-1.16173,3.94,6.219,0.0027,,,,,
JVASP-99334,KU2P3O12,-2.73645,0.0,na,0.0,,,,,
JVASP-51021,GaH3O3,-1.37653,4.13,6.042,0.0,,,,,
JVASP-102282,Li2CaAl,-0.20838,0.0,0.0,0.0019,,,,,
JVASP-102874,K2HgAsCl6,-1.0998,0.0,na,0.0942,,,,,
JVASP-100239,Th3Hg,-0.00614,0.0,na,0.0518,,,,,
JVASP-92735,SmSi2Ir2,-0.86222,0.0,na,0.1655,,,,,
JVASP-96911,AgIO3,-0.36668,2.244,na,0.0,,,,,
JVASP-18628,BaSn3Pt,-0.69915,0.0,na,0.0,,,,,
JVASP-99879,ErIn5Rh,-0.38208,0.0,na,0.0,,,,,
JVASP-102211,DyCu5,-0.21547,0.0,na,0.0006,,,,,
JVASP-103045,Tb2Co3Ni,-0.29842,0.0,na,0.0046,,,,,
JVASP-18795,TbTl,-0.36641,0.0,0.0,0.0,,,,,
JVASP-100486,Er2MgTc,-0.06761,0.0,0.0,0.062,,,,,
JVASP-11954,Mg13Al14,0.03805,0.0,na,0.0817,,,,,
JVASP-28891,Te2MoW3Se6,-0.40633,0.659,na,0.1312,,,,,
JVASP-100028,Ce2InAg,-0.23756,0.0,na,0.0397,,,,,
JVASP-15569,ThCr2Si2,-0.35288,0.0,0.0,0.0834,,,,,
JVASP-100999,MgAg5,-0.12315,0.0,0.0,0.0,,,,,
JVASP-14890,CoB2W2,-0.41259,0.0,na,0.0725,,,,,
JVASP-99549,YbZn2Si2,-0.33423,0.0,0.0,0.0,,,,,
JVASP-101479,KNa2AlF6,-3.17585,5.338,10.441,0.1943,,,,,
JVASP-52274,CaCdO2,-2.24207,0.538,2.47,0.0039,,,,,
JVASP-102159,Ba2SmTaO6,-3.36753,3.415,4.635,0.0,,,,,
JVASP-99681,K2LiSmCl6,-2.15592,4.896,na,0.0,,,,,
JVASP-99406,Hf2Al3Ag,-0.34788,0.0,0.0,0.0028,,,,,
JVASP-100942,NiI2O6,-0.28029,0.0,na,0.2029,,,,,
JVASP-100285,PrCo5H4,-0.08697,0.0,na,0.1433,,,,,
JVASP-100831,HoGePd,-0.90966,0.0,na,0.0027,,,,,
JVASP-100546,SmEuS2,-2.17568,0.0,na,0.0003,,,,,
JVASP-100148,AsPb3,0.1046,0.0,na,0.1046,,,,,
JVASP-97031,LaFeAsO,-1.94245,0.0,na,0.0238,,,,,
JVASP-15615,BaIrO3,-1.69185,0.0,na,0.1225,,,,,
JVASP-1948,CuBr,-0.27283,0.632,1.546,0.0,,,,,
JVASP-101103,Tb2Al3Pt,-0.8203,0.0,0.0,0.0532,,,,,
JVASP-101599,Pm2AgOs,-0.25215,0.0,0.0,0.0,,,,,
JVASP-99789,GeAu3,0.07695,0.0,na,0.077,,,,,
JVASP-100670,SmHO2,-2.73747,4.016,5.796,0.0,,,,,
JVASP-102964,NaSn3,-0.12153,0.0,na,0.0176,,,,,
JVASP-100373,Mn2NiO3,-1.17668,0.103,na,0.2962,,,,,
JVASP-2670,Al2CdTe4,-0.49783,1.669,2.552,0.0,,,,,
JVASP-100426,BaSrTi2O6,-3.38097,1.776,na,0.0173,,,,,
JVASP-19893,HoTe,-1.27826,0.0,na,0.0,,,,,
JVASP-100078,K3AlBr6,-1.51743,3.529,na,0.1249,,,,,
JVASP-48349,Li4MnFe3O8,-1.83773,0.0,na,0.0274,,,,,
JVASP-100785,Yb2NiSb2,-0.7489,0.0,na,0.0718,,,,,
JVASP-99454,NaSbN2,0.03795,1.578,2.523,0.2349,,,,,
JVASP-99744,EuH2,-0.45411,0.0,0.0,0.0,,,,,
JVASP-101217,CePdPt4,-0.71642,0.0,na,0.0015,,,,,
JVASP-107853,Rb2AgAuF6,-1.92362,0.0,na,0.0274,,,,,
JVASP-18714,ZrGa3,-0.44993,0.0,0.0,0.0101,,,,,
JVASP-100739,MnAu3,-0.00671,0.0,0.0,0.0414,,,,,
JVASP-15206,YSi2Rh2,-1.07317,0.0,0.0,0.0,,,,,
JVASP-100871,YAgSe2,-1.26518,0.688,1.376,0.0197,,,,,
JVASP-101048,YPRu2C,-0.70518,0.0,0.0,0.0006,,,,,
JVASP-99922,TiCr2Si6,-0.23613,0.0,na,0.0576,,,,,
JVASP-100240,Ti2FeOs,-0.61415,0.0,na,0.0045,,,,,
JVASP-3957,Rb2PtI6,-0.83094,0.424,1.102,0.0,,,,,
JVASP-101751,Ag3Ge,0.0897,0.0,0.0,0.0897,,,,,
JVASP-100608,Mg2Sc,-0.00474,0.0,na,0.0324,,,,,
JVASP-103304,Sc2CuPd,-0.63019,0.0,0.0,0.0027,,,,,
JVASP-99835,PmTh3,0.0484,0.0,na,0.0571,,,,,
JVASP-99594,Na2YCuBr6,-1.32035,1.63,na,0.2019,,,,,
JVASP-14573,UC,-0.25701,0.0,0.0,0.0,,,,,
JVASP-101408,Na3Ga,-0.02045,0.0,na,0.037,,,,,
JVASP-99880,Dy2NiAs2,-1.27265,0.0,na,0.0009,,,,,
JVASP-50956,BaSrI4,-1.78957,2.834,3.477,0.0552,,,,,
JVASP-100651,LaFeSi2Rh,-0.81612,0.0,na,0.0049,,,,,
JVASP-101541,Ba3La,0.09738,0.0,na,0.0974,,,,,
JVASP-102334,HoCoRu,-0.33721,0.0,na,0.0,,,,,
JVASP-99506,Mo3C2,0.00366,0.0,na,0.1611,,,,,
JVASP-99974,LaAl2Ag3,-0.36249,0.0,na,0.0,,,,,
JVASP-18668,NbCoSn,0.67449,0.0,na,1.0075,,,,,