jid,formula,formation_energy_per_atom,optb88vdw_bandgap,mbj_bandgap,ehull,spacegroup_number,natoms,volume,bulk_modulus_kv,shear_modulus_gv
JVASP-69135,BaSi2Pd,0.18014,0.0,0.0,0.7638,,,,,
JVASP-66590,Ba4ReRh,1.46571,0.0,na,1.5043,,,,,
JVASP-68938,BaBeCo2,1.04406,0.0,0.0,1.205,,,,,
JVASP-66391,BaTlCl,-0.75887,0.0,0.0,0.8036,,,,,
JVASP-62170,Zr6Al16Os7,-0.59834,0.0,na,0.0,,,,,
JVASP-65575,BaRh2Br,0.1334,0.0,0.0,1.0745,,,,,
JVASP-65321,BaNa2Zr,0.53454,0.0,na,0.5644,,,,,
JVASP-66759,LiBeCd,0.12402,0.0,na,0.3094,,,,,
JVASP-90143,GeO2,-1.67662,3.245,5.332,0.1013,,,,,
JVASP-91816,Ba3SrO4,-2.77512,2.149,3.566,0.0621,,,,,
JVASP-65689,BaSn2Se,-0.43267,0.0,na,0.6633,,,,,
JVASP-61075,Al5BO9,-3.19087,5.018,na,0.004,,,,,
JVASP-66083,Ba4TlRe,1.14225,0.0,na,1.307,,,,,
JVASP-69341,BaP2Pb,-0.21709,0.0,na,0.4713,,,,,
JVASP-63872,CrAuS2,-0.5562,0.443,na,0.0,,,,,
JVASP-3888,K2TiCl6,-1.88789,1.953,2.486,0.0,,,,,
JVASP-90738,LiDySn2,-0.45631,0.0,na,0.1375,,,,,
JVASP-61626,KAlH6O2F6,-2.1474,7.262,na,0.0,,,,,
JVASP-91921,CaMg3,-0.07529,0.0,na,0.0311,,,,,
JVASP-66658,Ba4RhSe,0.3431,0.0,na,1.1124,,,,,
JVASP-50338,Zr3N2O3,-2.84139,2.855,na,0.0161,,,,,
JVASP-62388,MnNiAs,-0.17005,0.0,0.0,0.0058,,,,,
JVASP-66273,Ba4TlOs,0.99323,0.0,na,1.158,,,,,
JVASP-66355,Ba4ReMo,1.82521,0.0,na,1.8252,,,,,
JVASP-66591,KBaTc,1.47716,0.0,na,1.48,,,,,
JVASP-66627,Ba2TiRe,1.3326,0.0,na,1.5516,,,,,
JVASP-66507,Ba4GaW,1.1193,0.0,na,1.3498,,,,,
JVASP-61821,PrAs2,-1.02464,0.152,na,0.0105,,,,,
JVASP-66392,BaMgSc,0.81344,0.0,na,0.9144,,,,,
JVASP-85687,Na2SnH6O6,-1.37216,3.467,5.521,0.0,,,,,
JVASP-66118,Ba4BeRu,1.28158,0.0,na,1.3715,,,,,
JVASP-90203,YSnRh,-0.92762,0.0,na,0.0,,,,,
JVASP-65609,Ba2ZnSn,-0.56064,0.0,na,0.0117,,,,,
JVASP-65721,Ba2TlZn,-0.37418,0.0,na,0.0239,,,,,
JVASP-68939,Ba2LiBi,-0.56152,0.0,na,0.1051,,,,,
JVASP-66687,Ba4SiPt,0.53947,0.0,na,1.0464,,,,,
JVASP-63210,BN,-1.19665,3.706,5.24,0.1922,,,,,
JVASP-66158,Ba4PdSe,0.13982,0.0,na,1.1052,,,,,
JVASP-63111,VFeAs,-0.28203,0.0,0.0,0.0332,,,,,
JVASP-14632,TmC2,-0.35002,0.0,0.225,0.0,,,,,
JVASP-42335,Li2MnFeB2O6,-2.10207,0.475,na,0.1078,,,,,
JVASP-66435,Ba4LiOs,1.10999,0.0,0.0,1.12,,,,,
JVASP-69175,Ba2InHg,-0.48067,0.0,0.0,0.0301,,,,,
JVASP-69295,BaZnBi2,-0.2888,0.0,na,0.2496,,,,,
JVASP-66473,Ba4CoRe,1.70154,0.0,0.0,1.7194,,,,,
JVASP-47999,LiMnF3,-2.66443,2.317,na,0.0529,,,,,
JVASP-66231,Ba4HfW,1.56573,0.0,0.0,1.6585,,,,,
JVASP-61405,CaAl2Cl8,-1.85278,5.547,na,0.0015,,,,,
JVASP-65423,BaBe2Ge,0.42996,0.0,na,0.7651,,,,,
JVASP-86302,BaSb2Au2,-0.6219,0.0,na,0.0,,,,,
JVASP-91872,Mg7W,0.20675,0.0,na,0.2764,,,,,
JVASP-66858,NaBeTl,0.43148,0.0,na,0.5217,,,,,
JVASP-43389,Li4MnW3O12,-2.26153,0.447,na,0.0818,,,,,
JVASP-85410,CrWO4,-2.16734,0.0,na,0.0668,,,,,
JVASP-65322,BaMg2Ta,0.63742,0.0,na,0.7294,,,,,
JVASP-66550,Ba4PdW,1.21483,0.0,0.0,1.5424,,,,,
JVASP-66159,BaTlSe,-0.68406,0.0,na,0.7772,,,,,
JVASP-69024,Ba2YSn,-0.10462,0.0,0.0,0.4212,,,,,
JVASP-63758,DyAu3,-0.78189,0.0,na,0.0,,,,,
JVASP-66356,Ba4SiRu,1.03087,0.0,na,1.2778,,,,,
JVASP-50465,ZrNbO4,-3.07624,0.0,na,0.0862,,,,,
JVASP-86637,Bi2MoO6,-1.76008,0.268,na,0.0079,,,,,
JVASP-61084,CeAl2Au2,-0.72981,0.0,na,0.0,,,,,
JVASP-63457,CoAsS,-0.49186,0.0,na,0.0004,,,,,
JVASP-66688,BaInHg,0.00877,0.0,na,0.4805,,,,,
JVASP-66628,BaTlPb,-0.06379,0.0,0.0,0.4125,,,,,
JVASP-49843,LiVS2,-1.19682,0.0,na,0.0374,,,,,
JVASP-14658,Ge,0.0,0.0,na,0.0,,,,,
JVASP-91771,Ca,0.0149,0.0,na,0.0,,,,,
JVASP-66659,BaNaSn,0.00076,0.0,0.0,0.5197,,,,,
JVASP-69224,Ba2TlCl,-0.96287,0.0,0.0,0.2953,,,,,
JVASP-90663,Cu2SnHgTe4,-0.08296,0.0,na,0.0167,,,,,
JVASP-66508,Ba4MnTc,1.36358,0.0,0.0,1.3675,,,,,
JVASP-66119,BaSrSn,-0.17675,0.389,0.558,0.5207,,,,,
JVASP-62958,CaAlB3O7,-2.94726,5.38,na,0.0,,,,,
JVASP-62814,Ba2CdB6O12,-2.66871,4.661,6.728,0.0081,,,,,
JVASP-63302,V5Ge3B,-0.42118,0.0,na,0.0064,,,,,
JVASP-62175,Te3As2,-0.00768,0.352,0.489,0.0035,,,,,
JVASP-66313,Ba2TiCr,1.37526,0.0,0.0,1.419,,,,,
JVASP-66593,Ba4GeIr,0.74382,0.0,na,1.0339,,,,,
JVASP-28371,NbTe2,-0.41718,0.0,0.0,0.0353,,,,,
JVASP-42571,MnOF,-2.11408,0.0,na,0.0,,,,,
JVASP-85957,BaBi4Cl2O6,-1.55726,0.0,na,0.1339,,,,,
JVASP-66436,Ba4VCo,1.28436,0.0,0.0,1.3539,,,,,
JVASP-66182,KBaCu,0.44673,0.0,0.0,0.5351,,,,,
JVASP-66084,KBaBe,0.88073,0.0,0.0,0.8836,,,,,
JVASP-65424,BaTi2Tl,0.64965,0.0,na,0.8968,,,,,
JVASP-62546,SrB2S4,-1.06343,2.871,3.572,0.0105,,,,,
JVASP-65760,BaNaTi4,0.74965,0.0,na,0.7675,,,,,
JVASP-69177,BaZnBi2,-0.28881,0.0,na,0.2496,,,,,
JVASP-15187,CeAl2Ga2,-0.43867,0.0,na,0.0,,,,,
JVASP-63112,RbCd4As3,-0.25119,0.0,na,0.0001,,,,,
JVASP-69025,Ba2ZrPb,0.23068,0.0,na,0.6878,,,,,
JVASP-3192,KAg2PS4,-0.53726,1.057,2.373,0.0,,,,,
JVASP-65722,BaNa2Tl,-0.1588,0.0,na,0.0945,,,,,
JVASP-48882,Li2CoSiO4,-2.2132,0.641,na,0.0718,,,,,
JVASP-65647,BaMgCl2,-1.61053,0.054,0.434,0.4114,,,,,
JVASP-63216,Li3As,-0.78007,0.764,1.108,0.0,,,,,
JVASP-89103,SnPb2O4,-1.49958,2.244,na,0.0,,,,,
JVASP-66594,BaZrSb,0.72433,0.0,na,1.5581,,,,,
JVASP-90497,TiSe,-1.15579,0.0,na,0.0,,,,,
JVASP-65576,BaNa2Mn,0.56028,0.0,0.0,0.5901,,,,,
JVASP-66160,Ba4IrPb,0.61291,0.0,na,0.9176,,,,,
JVASP-66629,Ba4MoW,1.78113,0.0,na,1.8739,,,,,
JVASP-66551,Ba4HfOs,1.48226,0.0,0.0,1.7393,,,,,
JVASP-69136,BaCa2Mg,-0.03877,0.0,0.0,0.0453,,,,,
JVASP-66085,BaZrBi,0.76824,0.0,na,1.4239,,,,,
JVASP-69260,BaYSc2,0.32014,0.0,0.0,0.3201,,,,,
JVASP-48692,Na2FeO3,-1.65221,0.0,0.0,0.0152,,,,,
JVASP-66660,Ba4TaFe,1.68958,0.0,na,1.7615,,,,,
JVASP-66763,BeTeW,0.27052,0.0,0.0,0.7382,,,,,
JVASP-68982,BaNa2Pt,-0.05825,0.0,0.0,0.3799,,,,,
JVASP-60808,FeB2,-0.27362,0.396,0.383,0.0,,,,,
JVASP-66120,Ba4ReSn,1.07658,0.0,na,1.4193,,,,,
JVASP-12083,NiI2,-0.09994,0.0,na,0.0,,,,,
JVASP-4840,Ca3N2,-0.94783,1.982,3.116,0.0788,,,,,
JVASP-86702,DyGa2Cu3,-0.29775,0.0,na,0.0257,,,,,
JVASP-69225,BaSr2Bi,-0.45331,0.0,na,0.2032,,,,,
JVASP-66315,Ba4GeP,0.35662,0.0,na,1.1072,,,,,
JVASP-69058,BaCo2Br,0.39262,0.0,0.0,1.2815,,,,,
JVASP-69101,BaTa2P,0.90935,0.0,0.0,1.4853,,,,,
JVASP-65690,BaSc4Ru,0.61624,0.0,0.0,0.8971,,,,,
JVASP-63760,UBN,-1.18058,0.0,0.0,0.0064,,,,,
JVASP-85612,CeGaPd2,-0.79783,0.0,na,0.006,,,,,
JVASP-86074,NpCr2Ge2,-0.03692,0.0,na,0.1504,,,,,
JVASP-69342,BaGaBi2,-0.32922,0.0,0.0,0.2097,,,,,
JVASP-65611,Ba2MnBr,-0.23947,0.0,0.0,0.6436,,,,,
JVASP-66232,BaLiSb,-0.35816,0.742,1.347,0.6679,,,,,
JVASP-66161,Ba4RePt,1.25465,0.0,na,1.5427,,,,,
JVASP-69026,Ba2SnHg,-0.66032,0.011,na,0.0,,,,,
JVASP-68940,Ba2NaCu,0.07184,0.0,0.0,0.1628,,,,,
JVASP-65724,Ba2TiSn,0.1153,0.0,na,0.6294,,,,,
JVASP-52574,Li4CuF5,-2.66867,1.481,na,0.1293,,,,,
JVASP-88757,Li9S3N,-1.18488,2.653,na,0.0454,,,,,
JVASP-66552,Ba4RePd,1.26818,0.0,na,1.503,,,,,
JVASP-88664,NbTe4Ir,-0.38292,0.0,na,0.0,,,,,
JVASP-65761,BaGa2Co,0.32773,0.0,na,0.7284,,,,,
JVASP-66595,Ba4PRu,0.88743,0.0,na,1.3479,,,,,
JVASP-86409,LiBIr,-0.5202,0.0,na,0.0001,,,,,
JVASP-66086,Ba4HfRe,1.59908,0.0,na,1.6983,,,,,
JVASP-61835,ErB2Ru,-0.63163,0.0,na,0.0,,,,,
JVASP-86177,Ni2Sn4Au,-0.20579,0.0,na,0.0002,,,,,
JVASP-52789,Li2NiO3,-1.65825,1.064,na,0.0266,,,,,
JVASP-66630,Ba4GeMo,1.0218,0.0,na,1.3118,,,,,
JVASP-62815,Dy4Fe3B6,-0.36549,0.0,na,0.1381,,,,,
JVASP-86478,UTeAs,-0.70666,0.0,na,0.0,,,,,
JVASP-66274,Ba4CdRu,0.89117,0.0,0.0,1.0351,,,,,
JVASP-22674,K2NiF6,-2.36484,1.535,na,0.0,,,,,
JVASP-48179,LiVPO4,-2.2192,0.813,na,0.0,,,,,
JVASP-62389,Hf9AsW4,-0.40032,0.0,na,0.0,,,,,
JVASP-87964,CuN3,0.56164,1.43,na,0.5733,,,,,
JVASP-66357,BaTlBi,-0.35733,0.506,0.657,0.2668,,,,,
JVASP-62965,Co5B2P,-0.32136,0.0,na,0.0423,,,,,
JVASP-66316,Ba4FeGe,1.01331,0.0,na,1.3039,,,,,
JVASP-62652,Li2B2S5,-0.80912,2.489,na,0.0,,,,,
JVASP-42838,Na4MnO4,-1.75063,0.147,na,0.0093,,,,,
JVASP-69059,BaCdSe4,-0.41503,0.0,na,0.5355,,,,,
JVASP-91680,NdGe2Pd,-0.76837,0.0,na,0.0,,,,,
JVASP-22595,MoF3,-2.14061,0.0,na,0.1883,,,,,
JVASP-14706,Zr,0.07277,0.0,0.0,0.0,,,,,
JVASP-87005,Li2CaGeO4,-2.45591,4.431,na,0.0,,,,,
JVASP-69343,Ba2GaBi,-0.61106,0.0,na,0.2083,,,,,
JVASP-90407,USnRu,-0.26383,0.0,na,0.0219,,,,,
JVASP-91584,GaSi3C3N,-0.34097,2.822,3.625,0.0575,,,,,
JVASP-90277,NiPW,-0.47316,0.0,na,0.0558,,,,,
JVASP-42750,Li6Co6O5F11,-2.06516,0.07,na,0.126,,,,,
JVASP-91542,LaNiSb2,-0.78423,0.0,na,0.0,,,,,
JVASP-69261,BaZr2Pd,0.25918,0.0,na,0.6405,,,,,
JVASP-66087,BaSiTe,-0.00413,0.0,na,1.2691,,,,,
JVASP-66596,BaGaPb,0.04366,0.0,na,0.5912,,,,,
JVASP-66764,Be2GePd,-0.0246,0.0,na,0.2977,,,,,
JVASP-66509,BaSrNb,1.49614,0.0,0.0,1.5206,,,,,
JVASP-66437,BaBiBr,-0.76052,0.0,0.0,0.7639,,,,,
JVASP-63220,YbCu4Au,-0.41044,0.0,0.0,0.0,,,,,
JVASP-62177,KAuN12,0.4708,1.476,1.634,0.5574,,,,,
JVASP-1702,ZnS,-0.88682,2.086,3.592,0.0,,,,,
JVASP-66183,BaSrHf,1.29676,0.0,0.0,1.3212,,,,,
JVASP-65762,Ba2SrCo,0.58633,0.0,na,0.6127,,,,,
JVASP-66393,Ba4YOs,1.17774,0.0,0.0,1.3026,,,,,
JVASP-63114,MgB2H8,-0.22115,6.161,10.246,0.0,,,,,
JVASP-66553,Ba4CdRh,0.64713,0.0,na,0.8297,,,,,
JVASP-69296,BaCu2Cl,-0.46691,0.0,0.0,0.5762,,,,,
JVASP-66275,BaCdIn,0.04373,0.0,na,0.5249,,,,,
JVASP-69027,BaLiSe4,-0.5322,0.0,na,0.5686,,,,,
JVASP-66474,Ba4HgIr,0.72814,0.0,0.0,0.8999,,,,,
JVASP-66359,Ba4ReBr,0.89311,0.0,na,1.4819,,,,,
JVASP-90883,YbAl2Pd,-0.76017,0.0,na,0.0,,,,,
JVASP-87317,Cr2H24I3N9,-0.41171,1.767,na,0.0,,,,,
JVASP-69060,BaZn2Re,0.90697,0.0,na,1.1168,,,,,
JVASP-86530,NbFeF6,-2.655,0.0,na,0.0201,,,,,
JVASP-66318,Ba4SiMo,1.13677,0.0,na,1.3361,,,,,
JVASP-61852,CrAu4,0.04337,0.0,na,0.0434,,,,,
JVASP-66631,Ba4TaNb,1.51087,0.0,0.0,1.516,,,,,
JVASP-65612,BaBeIr2,0.74914,0.0,na,0.9034,,,,,
JVASP-88059,CuSb2Xe4F20,-1.46324,0.685,na,0.0,,,,,
JVASP-90069,LuSnPd,-0.90375,0.0,na,0.0,,,,,
JVASP-65691,BaCo2Br,0.4564,0.0,0.0,1.3453,,,,,
JVASP-3495,InCuTe2,-0.24704,0.0,1.044,0.006,,,,,
JVASP-42255,Li4Ti3V3Te2O16,-2.38586,0.017,0.0,0.1789,,,,,
JVASP-88239,SrH16O10,-1.14275,3.904,na,0.0,,,,,
JVASP-61086,CaSiBHO5,-2.70338,5.627,7.804,0.0,,,,,
JVASP-66597,Ba4MoIr,1.40336,0.0,na,1.5207,,,,,
JVASP-69344,BaNa2Re,1.2083,0.0,0.0,1.2381,,,,,
JVASP-65330,BaYMo2,0.39695,0.0,0.0,0.397,,,,,
JVASP-66088,Ba4BiIr,0.47632,0.0,na,0.9107,,,,,
JVASP-63304,RbIn6Au4,-0.28593,0.0,na,0.0001,,,,,
JVASP-66394,BaBiSe,-0.44991,0.0,0.0,1.0114,,,,,
JVASP-22706,Li3VS4,-1.19619,1.821,2.122,0.0266,,,,,
JVASP-86759,DyP2Pt8,-0.62079,0.0,na,0.0,,,,,
JVASP-62820,CeAl2BRu2,-0.60456,0.0,0.0,0.0241,,,,,
JVASP-86328,BaN2,-0.67465,0.0,na,0.0,,,,,
JVASP-53563,Li5AuO4,-1.64601,2.205,2.573,0.0718,,,,,
JVASP-66510,Ba4SnIr,0.6015,0.0,na,0.9442,,,,,
JVASP-66661,BaBiTe,-0.46161,0.0,0.0,0.8101,,,,,
JVASP-329,TiSe,-0.84038,0.0,0.0,0.3154,,,,,
JVASP-69297,Ba2NaSb,-0.62886,0.0,na,0.1028,,,,,
JVASP-66554,Ba4RuPt,0.9773,0.0,na,1.2654,,,,,
JVASP-66121,BaTiCd,1.12063,0.0,0.0,1.4084,,,,,
JVASP-89932,BaYCo2O5,-2.24575,0.0,na,0.081,,,,,
JVASP-66438,Ba4ZrW,1.5111,0.0,0.0,1.6039,,,,,
JVASP-66184,Ba4CrTc,1.39346,0.0,na,1.3935,,,,,
JVASP-86878,NpMn2Si2,-0.21501,0.0,0.0,0.1151,,,,,
JVASP-18439,ZrCl,-1.36024,0.0,0.0,0.0,,,,,
JVASP-69138,Ba2ScTl,0.04209,0.0,0.0,0.2893,,,,,
JVASP-68984,Ba2HfCl,0.10348,0.0,0.0,1.1145,,,,,
JVASP-63601,CaB2H8,-0.38362,5.107,6.639,0.0068,,,,,
JVASP-61629,CaAs2O6,-1.87736,3.479,4.814,0.0,,,,,
JVASP-66278,Ba4InRu,0.8498,0.0,na,1.0533,,,,,
JVASP-89402,Na5P3O10,-2.34252,4.865,na,0.0,,,,,
JVASP-69178,BaMnCl2,-1.00946,0.0,0.0,1.0125,,,,,
JVASP-88430,Tl3BS3,-0.49312,1.177,na,0.0,,,,,
JVASP-65577,BaLiTi2,0.76522,0.0,0.0,0.7802,,,,,
JVASP-43803,LiVF4,-2.96181,0.236,na,0.1117,,,,,
JVASP-63762,Rb3B12H12I,-0.47749,4.844,na,0.0,,,,,
JVASP-69226,Ba2SrW,1.04976,0.0,0.0,1.2124,,,,,
JVASP-66766,BePdBr,-0.15928,0.0,0.0,0.6213,,,,,
JVASP-86808,H3AuC2NCl,-0.03986,3.444,3.945,0.2979,,,,,
JVASP-69029,Ba2TlSb,-0.70396,0.0,0.0,0.1457,,,,,
JVASP-66599,BaTaBi,1.40512,0.0,na,2.0293,,,,,
JVASP-48419,V3O5F,-2.64524,0.0,na,0.0012,,,,,
JVASP-66662,BaMgHg,0.14186,0.0,na,0.4938,,,,,
JVASP-52479,Li3SbS4,-0.90838,0.57,na,0.0554,,,,,
JVASP-86123,Dy2B4C,-0.63447,0.0,na,0.0,,,,,
JVASP-65425,BaRh2Se,0.03948,0.0,0.0,1.1354,,,,,
JVASP-90836,CeAsRuO,-1.94614,0.0,0.0,0.0,,,,,
JVASP-66162,BaCaIn,-0.03373,0.0,0.0,0.392,,,,,
JVASP-48236,Li2FeSi2O6,-2.38905,0.28,na,0.1015,,,,,
JVASP-66233,BaMgBr,-0.60152,0.0,1.828,0.6373,,,,,
JVASP-1849,Li2AgSb,-0.46811,0.097,na,0.0296,,,,,
JVASP-66123,BaGeTe,-0.25153,0.0,na,1.0201,,,,,
JVASP-43556,Li5FeF8,-2.81833,0.019,0.0,0.1083,,,,,
JVASP-66319,Ba4SbP,0.07557,0.0,0.0,1.0165,,,,,
JVASP-85897,BaSnO3,-2.39288,0.578,2.166,0.0,,,,,
JVASP-87076,TbBaF6,-3.65495,0.0,0.0,0.0674,,,,,
JVASP-66860,BeMoRh,-0.28932,0.0,0.0,0.1101,,,,,
JVASP-91922,CaZn,-0.16669,0.0,na,0.1708,,,,,
JVASP-15004,TiO,-2.53006,0.0,na,0.205,,,,,
JVASP-63225,CaB2C2,-0.28338,0.0,na,0.1625,,,,,
JVASP-65763,BaLiBi2,-0.5428,0.0,na,0.1721,,,,,
JVASP-66632,Ba4CoTc,1.54244,0.0,0.0,1.5598,,,,,
JVASP-65613,BaCrSe4,0.4368,0.0,0.0,1.4172,,,,,
JVASP-66089,Ba4SiRh,0.77232,0.0,na,1.1218,,,,,
JVASP-43972,Li2MnB2O6,-2.28036,1.813,na,0.0995,,,,,
JVASP-66689,NaZrBe,0.34939,0.0,na,0.4495,,,,,
JVASP-66187,Ba2HfNi,0.82481,0.0,na,1.1041,,,,,
JVASP-66555,Ba4ZnCo,0.95788,0.0,na,1.062,,,,,
JVASP-65648,BaHfSe4,0.07725,0.0,0.0,1.5147,,,,,
JVASP-69102,BaTiSe2,-1.11865,0.0,0.0,0.5552,,,,,
JVASP-66439,Ba4TeRh,0.28413,0.0,na,0.9586,,,,,
JVASP-69061,BaCa2Bi,-0.42374,0.0,0.0,0.2278,,,,,
JVASP-69346,K2BaMg,0.14668,0.0,0.0,0.2267,,,,,
JVASP-65579,Ba2SrTc,0.75665,0.0,na,0.7801,,,,,
JVASP-90204,ZrGaNi,-0.66228,0.0,na,0.0,,,,,
JVASP-3891,TiBrN,-1.49743,0.616,0.854,0.0,,,,,
JVASP-66279,Ba4SbOs,0.80522,0.0,na,1.2857,,,,,
JVASP-66511,Ba4PPd,0.40461,0.0,0.0,1.0999,,,,,
JVASP-66360,BaTiHg,1.0087,0.0,0.0,1.3522,,,,,
JVASP-91632,ZnCu2SnSe4,-0.39112,0.028,na,0.0194,,,,,
JVASP-85745,Np2InPt2,-0.6517,0.0,0.0,0.0,,,,,
JVASP-66475,BaNaHg,0.07801,0.0,0.0,0.4256,,,,,
JVASP-69179,BaLiTe2,-1.08448,0.0,na,0.2862,,,,,
JVASP-66769,YBeIr,-0.51806,0.0,na,0.1811,,,,,
JVASP-48953,Li4V3OF11,-2.99285,0.02,0.0,0.0574,,,,,
JVASP-69298,BaCd2Cl,-0.91079,0.0,na,0.255,,,,,
JVASP-44532,Li2Mn3SnO8,-1.92616,0.0,0.0,0.0741,,,,,
JVASP-48336,MnNi3O4,-0.84957,0.0,0.0,0.2844,,,,,
JVASP-69262,K2BaMn,0.49664,0.0,0.0,0.5009,,,,,
JVASP-87858,Sr3Al2Si3O12,-3.17446,4.749,na,0.0552,,,,,
JVASP-42952,Li4Co3TeO8,-1.44212,0.0,na,0.2184,,,,,
JVASP-61862,CaSiBHO5,-2.70338,5.626,na,0.0,,,,,
JVASP-69139,BaCrIn4,0.4498,0.135,0.139,0.7745,,,,,
JVASP-5269,BiSI,-0.46516,1.767,2.407,0.0,,,,,
JVASP-92174,ZnCu2GeTe4,-0.16733,0.0,0.283,0.0064,,,,,
JVASP-88946,SiPt3,-0.46169,0.0,na,0.0124,,,,,
JVASP-66124,BaZnSb,-0.19823,0.0,na,0.5977,,,,,
JVASP-68941,BaInMo2,1.21135,0.0,0.0,1.4599,,,,,
JVASP-66556,Ba2GeP,-0.56264,0.0,na,0.3178,,,,,
JVASP-66395,BaTiTe,0.33032,0.0,0.0,1.602,,,,,
JVASP-66633,BaVHg,1.0022,0.0,0.0,1.3457,,,,,
JVASP-90025,UGaPd,-0.37926,0.0,0.0,0.0238,,,,,
JVASP-66188,Ba4TlIr,0.69561,0.0,na,0.8604,,,,,
JVASP-66320,Ba4IrCl,0.417,0.0,na,1.091,,,,,
JVASP-66600,BaInSn,-0.05787,0.0,0.0,0.5491,,,,,
JVASP-14659,ScAl,-0.47668,0.0,0.0,0.0,,,,,
JVASP-69103,BaSr2Li,0.08225,0.0,na,0.12,,,,,
JVASP-66281,Ba4TaRu,1.59208,0.0,na,1.6959,,,,,
JVASP-85333,SrIn3Au3,-0.50235,0.0,na,0.0,,,,,
JVASP-63117,B,0.02302,1.642,1.946,0.0,,,,,
JVASP-66476,BaMgBi,-0.16794,0.0,na,0.534,,,,,
JVASP-66234,Ba4OsCl,0.72792,0.0,0.0,1.4019,,,,,
JVASP-61631,TbInAu,-0.77249,0.0,na,0.0001,,,,,
JVASP-66663,Ba4LaW,1.2112,0.0,na,1.304,,,,,
JVASP-66163,Ba4CuRh,0.85833,0.0,0.0,0.9397,,,,,
JVASP-65764,BaBi2Cl,-1.07172,0.0,na,0.1995,,,,,
JVASP-50339,Rb2Be2O3,-2.28605,3.426,6.111,0.0,,,,,
JVASP-43652,Li2FeF4,-2.64435,0.21,na,0.0425,,,,,
JVASP-66512,BaLiTe,-0.64785,0.0,2.217,0.6241,,,,,
JVASP-63606,CeB2C2,-0.36591,0.0,na,0.1202,,,,,
JVASP-14166,Ta2PdS6,-0.93217,0.0,0.195,0.0,,,,,
JVASP-60812,LiAlGeO4,-2.45983,3.253,na,0.0,,,,,
JVASP-65692,BaMnBr2,-0.7546,0.0,0.0,1.0116,,,,,
JVASP-48693,Na3MnO3,-1.63862,0.122,na,0.0585,,,,,
JVASP-69263,BaLiHg2,-0.19706,0.0,na,0.2084,,,,,
JVASP-52218,Ti8O13,-3.13472,0.053,na,0.0352,,,,,
JVASP-66602,BaHfSe,0.69831,0.0,na,2.1596,,,,,
JVASP-86248,NbI5,-0.44883,0.693,0.764,0.0003,,,,,
JVASP-66397,BaLiZn,0.28814,0.0,na,0.4988,,,,,
JVASP-66691,Be2InGa,0.52853,0.0,na,0.5298,,,,,
JVASP-69300,BaNa2Mg,0.06647,0.0,na,0.1483,,,,,
JVASP-66125,Ba4MnP,1.04581,0.0,na,1.5063,,,,,
JVASP-68986,KBa2Pd,-0.03782,0.0,0.0,0.3165,,,,,
JVASP-66557,Ba4HgRh,0.65413,0.0,na,0.8645,,,,,
JVASP-69104,K2BaBe,0.57811,0.0,na,0.5824,,,,,
JVASP-66191,Ba2FePb,0.16031,0.0,na,0.6183,,,,,
JVASP-65332,BaTiSi2,0.10282,0.0,0.0,0.6925,,,,,
JVASP-66634,BaOsBr,0.77344,0.0,0.0,1.9509,,,,,
JVASP-66283,Ba4CoBr,0.57538,0.0,na,1.166,,,,,
JVASP-69141,BaGe2Br,-0.22535,0.0,na,0.8931,,,,,
JVASP-62548,CeB2C2,-0.4861,0.0,0.0,0.0,,,,,
JVASP-50466,Li5SbS4,-1.14869,1.316,na,0.0772,,,,,
JVASP-66664,BaYSe,0.13449,0.0,na,1.5958,,,,,
JVASP-48884,LiCrC2O6,-1.66045,2.052,na,0.1122,,,,,
JVASP-69030,Ba2CaPd,-0.01561,0.0,na,0.4084,,,,,
JVASP-66164,BaMnBi,0.53646,0.0,0.0,1.1606,,,,,
JVASP-42576,Li5Fe4O8,-1.62371,0.0,0.0,0.1782,,,,,
JVASP-90665,HfCuSiAs,-0.49835,0.0,na,0.0062,,,,,
JVASP-65725,BaGaW2,1.44655,0.0,0.0,1.9315,,,,,
JVASP-63765,NiB2W2,-0.60296,0.0,na,0.0,,,,,
JVASP-66477,Ba4InW,1.02045,0.0,na,1.3168,,,,,
JVASP-15643,PrNi2Ge2,-0.68754,0.0,na,0.0,,,,,
JVASP-86936,K2La2Ti3O10,-3.28929,2.035,na,0.0,,,,,
JVASP-66515,Ba4NiPt,0.76332,0.0,na,1.0514,,,,,
JVASP-61884,TeAsRu,-0.37373,0.848,0.88,0.0,,,,,
JVASP-86303,KTmI3,-1.26202,0.0,na,0.0918,,,,,
JVASP-68942,BaTl2Bi,-0.32754,0.0,na,0.1406,,,,,
JVASP-90410,Sr2FeH6,-0.57205,1.172,na,0.0,,,,,
JVASP-91723,SiI3,-0.31621,2.72,3.499,0.0,,,,,
JVASP-69227,BaNi2Cl,0.1041,0.0,0.0,1.1151,,,,,
JVASP-66362,BaTlBr,-0.67035,0.0,0.0,0.7216,,,,,
JVASP-63459,K3AsS3,-1.0839,2.572,4.008,0.0,,,,,
JVASP-63125,UAsP,-0.81188,0.0,na,0.0,,,,,
JVASP-92227,TbLiSe2,-1.76277,1.607,na,0.0164,,,,,
JVASP-65693,BaZn2Os,0.73514,0.0,na,0.945,,,,,
JVASP-66603,Ba4TaOs,1.72072,0.0,na,1.8184,,,,,
JVASP-91873,Mg7Sb,-0.06597,0.0,na,0.0687,,,,,
JVASP-66441,BaWBr,0.90732,0.978,na,2.2704,,,,,
JVASP-16221,Ti3TlN,-0.82039,0.0,0.0,0.0292,,,,,
JVASP-66235,Ba4HgPt,0.44909,0.0,0.0,0.9089,,,,,
JVASP-65765,BaZrTe2,-0.85124,0.0,0.0,0.5623,,,,,
JVASP-65649,BaNaSr2,0.04705,0.0,0.0,0.08,,,,,
JVASP-85958,CuBi2O4,-1.08776,0.0,na,0.0978,,,,,
JVASP-15391,TlCo2Se2,-0.21824,0.0,na,0.0659,,,,,
JVASP-66558,Ba4IrW,1.48662,0.0,na,1.6269,,,,,
JVASP-85614,Pu2SnPd2,-0.72122,0.0,na,0.0,,,,,
JVASP-66398,Ba4TaMn,1.7297,0.0,0.0,1.8191,,,,,
JVASP-3408,In2HgTe4,-0.22128,0.404,1.349,0.0,,,,,
JVASP-66192,Ba4RhW,1.40833,0.0,na,1.5398,,,,,
JVASP-62390,BAsO4,-1.7373,4.469,6.027,0.0033,,,,,
JVASP-66284,BaYMg,0.72038,0.0,na,0.8213,,,,,
JVASP-63878,B2O3,-2.5325,6.545,9.182,0.0047,,,,,
JVASP-69264,Ba2SrP,-0.14788,0.0,0.0,0.5429,,,,,
JVASP-65614,BaSr2Ca,0.01984,0.0,0.0,0.0495,,,,,
JVASP-86179,Rb2FeI4,-0.96131,0.0,na,0.0,,,,,
JVASP-66863,ZrBePd,-0.22441,0.009,0.068,0.3074,,,,,
JVASP-66774,Be2SiNi,-0.12842,0.0,na,0.1325,,,,,
JVASP-65333,BaCr2Mo,0.72764,0.0,na,0.7277,,,,,
JVASP-90607,DyAgSe2,-1.21558,0.598,na,0.0369,,,,,
JVASP-66665,BaYSb,0.21126,0.0,na,1.142,,,,,
JVASP-66953,BeZnRu,0.11353,0.0,0.0,0.3484,,,,,
JVASP-68987,BaSr2Mg,-0.02765,0.0,na,0.0579,,,,,
JVASP-69062,BaVBr2,-0.72501,0.0,0.0,1.0412,,,,,
JVASP-69143,BaZnSe2,-1.05148,0.0,na,0.4035,,,,,
JVASP-65580,K2BaSe,-0.88538,0.0,0.0,0.2149,,,,,
JVASP-69032,BaLi2Cl,-0.65396,0.0,0.0,0.3871,,,,,
JVASP-62970,KLi2As,-0.67451,0.889,2.072,0.0,,,,,
JVASP-65726,BaNbSe4,0.20787,0.0,na,1.3971,,,,,
JVASP-69348,BaZnCl2,-1.65001,1.144,1.113,0.372,,,,,
JVASP-1294,BaSe,-2.16602,1.915,2.851,0.0259,,,,,
JVASP-66478,Ba4ReCl,0.89153,0.0,0.0,1.5655,,,,,
JVASP-66516,Ba4CuRe,1.37281,0.0,na,1.4156,,,,,
JVASP-68943,BaCrCl2,-0.99886,0.0,na,1.0231,,,,,
JVASP-86076,Rb3Mn2Cl7,-1.48579,0.617,na,0.1309,,,,,
JVASP-67028,HfBeRu,-0.3833,0.0,0.0,0.2375,,,,,
JVASP-90739,NbCrN2,-0.47371,0.0,na,0.4873,,,,,
JVASP-63228,B3Ru2,0.17524,0.0,na,0.4672,,,,,
JVASP-66321,BaCaTi,1.21442,0.0,0.0,1.2224,,,,,
JVASP-14204,SbCl4F,-0.9665,1.216,2.404,0.0,,,,,
JVASP-66236,Ba2FeGe,0.41413,0.0,na,0.8501,,,,,
JVASP-67173,Be2ZnRe,0.11553,0.0,na,0.3843,,,,,
JVASP-61639,Na4BeAlSi4ClO12,-2.76184,4.766,7.65,0.0,,,,,
JVASP-90501,Ba2NiF6,-3.31132,0.405,na,0.0104,,,,,
JVASP-88665,TbCuW2O8,-2.51586,1.317,na,0.0,,,,,
JVASP-42336,Fe4O5F3,-1.60633,0.0,0.0,0.131,,,,,
JVASP-89125,V2WO6,-2.4858,0.0,na,0.0,,,,,
JVASP-90884,Fe7Co,-0.00251,0.0,na,0.0129,,,,,
JVASP-67261,BeTlCr,0.98852,0.0,na,1.0932,,,,,
JVASP-62179,KAlH6O2F6,-2.14741,7.26,na,0.0,,,,,
JVASP-66604,Ba4MnCr,1.81499,0.0,0.0,1.815,,,,,