jid,formula,formation_energy_per_atom,optb88vdw_bandgap,mbj_bandgap,ehull,spacegroup_number,natoms,volume,bulk_modulus_kv,shear_modulus_gv
JVASP-85895,ErSi2Au2,-0.46913,0.0,na,0.1021,,,,,
JVASP-69290,BaMnBr2,-0.78686,0.0,na,0.9794,,,,,
JVASP-66581,BaInSb,-0.34384,0.424,0.557,0.3654,,,,,
JVASP-91870,Mg7Ti,0.09919,0.0,na,0.0992,,,,,
JVASP-66067,BaLiSn,0.06887,0.0,0.0,0.6861,,,,,
JVASP-65604,Ba2TiTe,-0.16731,0.0,0.0,0.7864,,,,,
JVASP-69330,Ba2ScPb,-0.03578,0.0,na,0.4213,,,,,
JVASP-85330,RbC2I3N2,-0.01096,2.943,3.532,0.4136,,,,,
JVASP-69013,BaTlPb2,-0.30025,0.0,na,0.1051,,,,,
JVASP-69373,BaMnCr2,1.60348,0.0,0.0,1.6035,,,,,
JVASP-42748,LiCo3O2F6,-1.89711,0.0,na,0.0194,,,,,
JVASP-66343,Ba4ScMo,1.29627,0.0,na,1.2963,,,,,
JVASP-66615,Ba4FePt,1.09599,0.0,na,1.3847,,,,,
JVASP-66538,BaCaSb,-0.28305,0.0,na,0.6874,,,,,
JVASP-65753,BaSr2Te,-0.78582,0.0,0.0,0.1719,,,,,
JVASP-69255,BaGaCl2,-1.49661,0.0,2.459,0.5254,,,,,
JVASP-66501,BaScSb,0.27416,0.0,na,1.172,,,,,
JVASP-66466,Ba4BeRe,1.56812,0.0,na,1.6577,,,,,
JVASP-66429,Ba4CdOs,1.02286,0.0,na,1.1668,,,,,
JVASP-61358,BAsO4,-1.71421,4.145,5.556,0.0264,,,,,
JVASP-1789,LiRhO2,-1.41585,1.473,na,0.0,,,,,
JVASP-85609,EuCu,-0.27143,0.0,na,0.0184,,,,,
JVASP-66263,BaLiY,0.83126,0.0,0.0,0.8513,,,,,
JVASP-66144,Ba4MnV,1.35418,0.0,0.0,1.4516,,,,,
JVASP-65493,BaRu2W,0.59213,0.0,0.0,0.7711,,,,,
JVASP-66302,Ba4NiMo,1.36351,0.0,0.0,1.3895,,,,,
JVASP-48686,Li4Fe3O2F6,-2.27737,0.033,0.0,0.1608,,,,,
JVASP-90139,Cu2GeI6,0.45835,0.0,na,0.6536,,,,,
JVASP-85686,Na2ZnH4Se2O10,-1.17407,3.287,4.641,0.0,,,,,
JVASP-86468,CuSnF6,-2.17048,0.0,0.0,0.0012,,,,,
JVASP-66108,Ba4RuBr,0.59668,0.0,0.0,1.1854,,,,,
JVASP-88654,Tl4HgBr6,-0.76361,1.496,na,0.0,,,,,
JVASP-66582,BaScTe,0.10125,0.0,na,1.3729,,,,,
JVASP-65415,BaHfCu2,0.23601,0.0,0.0,0.3773,,,,,
JVASP-63733,Na2AgAs,-0.42313,0.803,na,0.015,,,,,
JVASP-69291,BaNa2Cd,-0.04985,0.0,na,0.1721,,,,,
JVASP-98683,LaTmGe4Ir2,-0.86154,0.0,na,0.0,,,,,
JVASP-18618,Li2TlAu,-0.37762,0.0,na,0.0624,,,,,
JVASP-89097,Co3Mo3N,-0.19747,0.0,na,0.0191,,,,,
JVASP-66222,BaReCl,0.90576,0.0,na,2.2537,,,,,
JVASP-69092,BaLaSb2,-0.94001,0.0,na,0.2492,,,,,
JVASP-66068,BaTeSe,-0.84221,0.0,0.0,0.6191,,,,,
JVASP-62522,KAs2F7,-2.4084,4.933,7.17,0.0,,,,,
JVASP-88425,K2CdN12,0.08686,2.829,na,0.2127,,,,,
JVASP-91540,TbGa2Ni,-0.64737,0.0,na,0.0,,,,,
JVASP-66616,Ba4ZrOs,1.4178,0.0,na,1.6304,,,,,
JVASP-69256,Ba2CdSb,-0.75698,0.0,na,0.0827,,,,,
JVASP-69014,BaScSe4,-0.2755,0.0,na,1.2062,,,,,
JVASP-66384,Ba4TiPt,0.93534,0.0,0.0,1.2752,,,,,
JVASP-62158,TiCrAs,-0.55209,0.0,0.0,0.0729,,,,,
JVASP-66650,BaInMo,1.44033,0.0,0.0,1.7717,,,,,
JVASP-66467,Ba4CrRh,1.04307,0.0,na,1.0817,,,,,
JVASP-88053,Sm2IO2,-2.86126,0.0,na,0.0838,,,,,
JVASP-91815,LiPd7,-0.1782,0.0,na,0.0,,,,,
JVASP-85406,ZrFeF6,-3.16912,0.0,0.0,0.0,,,,,
JVASP-66502,Ba4SiPd,0.55249,0.0,na,0.9866,,,,,
JVASP-66145,Ba4InFe,0.94289,0.0,na,1.147,,,,,
JVASP-66303,Ba4MnRe,1.88817,0.0,na,1.8882,,,,,
JVASP-66109,BaSiCl,-0.50898,0.602,na,1.0383,,,,,
JVASP-68973,BaSi2Br,-0.17909,0.0,na,0.8547,,,,,
JVASP-63578,Ho5SbAu2,-0.79881,0.0,na,0.0068,,,,,
JVASP-66539,Ba4MoRh,1.32513,0.0,0.0,1.3952,,,,,
JVASP-15438,YCr2Si2,-0.39508,0.0,0.0,0.1084,,,,,
JVASP-65754,BaZr4Pd,0.46254,0.0,0.0,0.7168,,,,,
JVASP-65801,BaSrCl2,-1.88942,0.0,0.0,0.1325,,,,,
JVASP-66223,BaMgIn,0.20288,0.0,0.0,0.5727,,,,,
JVASP-22724,NaLi2Bi,-0.54587,0.504,0.931,0.0,,,,,
JVASP-65717,BaNa2Hg,-0.07723,0.0,0.0,0.1865,,,,,
JVASP-66070,Ba4MnOs,1.74661,0.0,na,1.7501,,,,,
JVASP-87854,ErAgSn,-0.55911,0.0,na,0.0164,,,,,
JVASP-66617,Ba4TcRh,1.31029,0.0,na,1.3722,,,,,
JVASP-66148,BaMgCd,0.18584,0.0,na,0.4843,,,,,
JVASP-66583,Ba4ScIr,0.95842,0.0,0.0,1.3375,,,,,
JVASP-65684,K2BaV,0.65144,0.0,0.0,0.6557,,,,,
JVASP-65570,BaPIr2,0.58313,0.0,0.0,1.3242,,,,,
JVASP-69093,BaHf4Cu,0.76484,0.0,0.0,0.8542,,,,,
JVASP-48416,NaCo3O4,-1.03361,0.0,na,0.2215,,,,,
JVASP-60798,B,0.02302,1.642,1.946,0.0,,,,,
JVASP-89391,LaGaO3,-2.91406,3.416,na,0.025,,,,,
JVASP-69130,BaTiPd2,0.0954,0.0,na,0.6827,,,,,
JVASP-65495,BaTa2Tl,0.85991,0.0,na,1.1071,,,,,
JVASP-66110,BaCrCd,0.85965,0.0,na,1.1475,,,,,
JVASP-66304,Ba4HfRh,1.12203,0.0,na,1.4118,,,,,
JVASP-68974,BaTa2Se,0.7135,0.0,na,1.8095,,,,,
JVASP-87961,TlSb3S5,-0.36676,1.466,na,0.0022,,,,,
JVASP-65641,KBaIn2,-0.24663,0.0,na,0.1756,,,,,
JVASP-91770,TbSnPt2,-1.00944,0.0,na,0.0,,,,,
JVASP-66618,KBaSe,-0.69156,0.0,na,0.7726,,,,,
JVASP-90496,Mn2P,-0.42349,0.0,na,0.0,,,,,
JVASP-66468,Ba4TaSi,1.13552,0.0,0.0,1.3537,,,,,
JVASP-63209,MnAsPd,-0.13182,0.0,na,0.0982,,,,,
JVASP-66386,Ba4GePt,0.42952,0.0,0.0,1.0076,,,,,
JVASP-90405,Er3Co2Ge4,-0.72654,0.0,na,0.0,,,,,
JVASP-63089,LiBC,-0.47033,1.272,na,0.0,,,,,
JVASP-89930,Ba3Zn2As4,-0.92046,0.0,na,0.0,,,,,
JVASP-61048,Co3BPO7,-1.58281,0.0,na,0.099,,,,,
JVASP-69219,BaYPd2,-0.40589,0.0,0.0,0.3945,,,,,
JVASP-43797,NaSnO,-1.2499,0.0,na,0.081,,,,,
JVASP-66071,BaNaNb,1.55655,0.0,0.0,1.5923,,,,,
JVASP-62649,LaB2C2,-0.51595,0.0,na,0.0008,,,,,
JVASP-52389,MnO2,-1.79552,0.218,na,0.0094,,,,,
JVASP-69094,BaCoBr2,-0.62819,0.0,0.0,1.1409,,,,,
JVASP-49842,TmTlO2,-2.62696,1.443,2.166,0.0799,,,,,
JVASP-66150,Ba2GaSi,-0.2817,0.0,na,0.1875,,,,,
JVASP-86300,Ti4FeBi2,-0.30552,0.0,na,0.0,,,,,
JVASP-90276,MnPRh,-0.49708,0.0,na,0.0544,,,,,
JVASP-66264,BaSrTa,1.70533,0.0,0.0,1.7298,,,,,
JVASP-66174,Ba4ZnTc,1.13177,0.0,0.0,1.234,,,,,
JVASP-61365,V5As3C,-0.40835,0.0,na,0.085,,,,,
JVASP-66430,BaWCl,0.8232,1.016,na,2.3568,,,,,
JVASP-63443,Cr5B3,-0.39382,0.0,na,0.0,,,,,
JVASP-88755,Ga10GePb3O20,-1.86397,3.1,na,0.0,,,,,
JVASP-86529,BiPO4,-2.05465,3.863,na,0.0055,,,,,
JVASP-69170,BaNi2Br,0.13078,0.0,0.0,1.0139,,,,,
JVASP-91583,ScTe,-1.21295,0.0,na,0.0119,,,,,
JVASP-65643,Ba2TeMo,0.16251,0.0,na,1.1163,,,,,
JVASP-69053,BaCaTi4,0.58435,0.0,0.0,0.5883,,,,,
JVASP-65605,BaSr2Te,-0.78584,0.0,0.0,0.1718,,,,,
JVASP-69374,Ba2YMn,0.62675,0.0,0.0,0.6332,,,,,
JVASP-65538,BaTi2Cu,0.75953,0.0,0.0,0.8564,,,,,
JVASP-68975,BaCdIr2,0.46046,0.0,na,0.6763,,,,,
JVASP-69332,BaTePd2,-0.45804,0.0,0.0,0.4957,,,,,
JVASP-90789,Mg3GaO4,-2.46506,0.0,na,0.24,,,,,
JVASP-90066,Er2CuGe6,-0.39119,0.0,na,0.0661,,,,,
JVASP-90737,EuCu,-0.28983,0.0,na,0.0,,,,,
JVASP-85744,Np2InRh2,-0.46402,0.0,na,0.0,,,,,
JVASP-66305,Ba4SiGe,0.50258,0.0,na,0.9919,,,,,
JVASP-66111,Ba4CdIr,0.72609,0.0,0.0,0.87,,,,,
JVASP-66651,BaTePb,-0.42097,0.0,0.0,0.8507,,,,,
JVASP-66469,Ba4HgW,1.18868,0.0,na,1.4532,,,,,
JVASP-15077,PrCo5,-0.03593,0.0,na,0.0281,,,,,
JVASP-62523,CeMn4Al8,-0.31292,0.0,na,0.0,,,,,
JVASP-66503,BaTiCd,1.12168,0.0,na,1.4095,,,,,
JVASP-66344,Ba4RhPb,0.5223,0.0,0.0,0.8657,,,,,
JVASP-69131,BaSrIr2,0.17598,0.0,na,0.4765,,,,,
JVASP-3885,Tl2PtCl6,-0.83073,1.631,2.119,0.0,,,,,
JVASP-66072,BaMnSb,0.49396,0.0,na,1.1946,,,,,
JVASP-86877,SmOs2,-0.2713,0.0,na,0.0,,,,,
JVASP-87003,KAsF6,-2.48679,4.849,na,0.0064,,,,,
JVASP-86407,LaMgNi4,-0.35357,0.0,na,0.0,,,,,
JVASP-88942,Dy2CN2O2,-2.36532,3.939,na,0.0,,,,,
JVASP-90200,DyMgAg,-0.29566,0.0,na,0.0,,,,,
JVASP-69016,Ba2ScHg,0.11288,0.0,0.0,0.3705,,,,,
JVASP-98684,Ba2CaPd3O6,-1.89535,1.34,na,0.0,,,,,
JVASP-63583,SrCu2B2O6,-2.04857,0.031,0.758,0.072,,,,,
JVASP-66541,BaNaGa,0.22878,0.0,0.0,0.5138,,,,,
JVASP-62163,Rb7NbAs4,-0.52913,0.996,na,0.0,,,,,
JVASP-63743,BN,-1.38201,3.655,5.336,0.0068,,,,,
JVASP-62361,Li3AlF6,-3.41959,8.441,na,0.0,,,,,
JVASP-48948,Li3MnF7,-2.79084,1.882,na,0.1084,,,,,
JVASP-90835,Nd3Al,-0.20282,0.0,na,0.0101,,,,,
JVASP-90024,TmSnIr,-0.8871,0.0,na,0.0,,,,,
JVASP-87074,SF6,-1.71315,5.947,7.374,0.0066,,,,,
JVASP-63289,B2Mo2Ru,-0.34323,0.0,na,0.0187,,,,,
JVASP-65804,Ba2CrCd,0.24495,0.0,0.0,0.4608,,,,,
JVASP-66175,Ba4TcPb,0.86747,0.0,na,1.1722,,,,,
JVASP-66265,Ba4NbW,1.60192,0.0,na,1.6947,,,,,
JVASP-3189,NdZnSbO,-1.76295,0.181,na,0.0,,,,,
JVASP-65419,BaSc2Ni,-0.07277,0.0,0.0,0.217,,,,,
JVASP-66584,BaNbCl,0.63192,0.0,0.0,1.9799,,,,,
JVASP-66151,Ba4VRu,1.5506,0.0,0.0,1.6256,,,,,
JVASP-86807,SmSb12Os4,-0.12736,0.0,na,0.0176,,,,,
JVASP-91920,Mg3Cd,-0.05711,0.0,na,0.0234,,,,,
JVASP-66652,BaSbMo,1.21268,0.0,na,1.9134,,,,,
JVASP-65571,Ba2MgZr,0.49229,0.0,0.0,0.568,,,,,
JVASP-61815,MgBeAl4O8,-3.21411,6.074,7.434,0.0461,,,,,
JVASP-65755,Ba2MgV,0.77691,0.0,0.0,0.8526,,,,,
JVASP-66307,BaHfTe,0.69518,0.0,0.0,1.9669,,,,,
JVASP-66470,BaSnHg,-0.02455,0.0,na,0.5163,,,,,
JVASP-65685,Ba2LiZn,-0.09713,0.0,na,0.0706,,,,,
JVASP-66619,KBaSi,0.26192,0.0,0.0,0.587,,,,,
JVASP-69257,BaSn2Te,-0.58485,0.0,na,0.3689,,,,,
JVASP-66074,BaSnTe,-0.40047,0.0,na,0.8712,,,,,
JVASP-66112,Ba4VRe,1.79431,0.0,na,1.9182,,,,,
JVASP-69292,BaHf4Ga,0.58777,0.0,0.0,0.7786,,,,,
JVASP-66225,Ba4BeMo,1.5116,0.0,na,1.5852,,,,,
JVASP-63444,UPt4Au,-0.57049,0.0,na,0.0,,,,,
JVASP-65644,BaBe2Br,0.3641,0.0,na,1.2472,,,,,
JVASP-53562,Al3NO3,-2.78974,4.482,5.603,0.0482,,,,,
JVASP-91970,AgO,-0.22342,0.0,na,0.0,,,,,
JVASP-69171,KBaTl2,-0.26554,0.0,na,0.0604,,,,,
JVASP-66345,Ba4BeV,1.40619,0.0,na,1.4568,,,,,
JVASP-15186,DySi2Pd2,-0.87918,0.0,na,0.0,,,,,
JVASP-42334,Fe2OF3,-1.747,0.0,na,0.1927,,,,,
JVASP-66683,Ba4BiPt,0.16816,0.0,na,0.8906,,,,,
JVASP-66504,Ba4CdW,1.17431,0.0,na,1.411,,,,,
JVASP-66387,BaYCl,0.14654,0.0,0.0,1.4945,,,,,
JVASP-4837,Ga2O3,-1.73835,1.476,na,0.2632,,,,,
JVASP-69220,Ba2LiCr,0.44526,0.0,0.0,0.4603,,,,,
JVASP-66543,Ba4FeSe,0.72255,0.0,na,1.4538,,,,,
JVASP-14024,ZrBr3,-1.43937,0.0,na,0.0,,,,,
JVASP-69335,BaSnSb2,-0.44945,0.0,na,0.14,,,,,
JVASP-50336,Hf3N4,-1.84214,0.974,na,0.0262,,,,,
JVASP-91871,SrMg7,0.03677,0.0,na,0.097,,,,,
JVASP-66176,BaSrMn,1.01006,0.0,0.0,1.0345,,,,,
JVASP-61377,LaAl2,-0.52751,0.0,na,0.0,,,,,
JVASP-68936,Ba2CaMo,0.81621,0.0,0.0,0.8239,,,,,
JVASP-28370,VI2,-0.14123,0.0,0.0,0.1486,,,,,
JVASP-60799,Ga2Au,-0.13156,0.0,na,0.0871,,,,,
JVASP-66653,Ba4HfPt,0.91988,0.0,na,1.3137,,,,,
JVASP-66585,Ba4HfMo,1.52163,0.0,0.0,1.5623,,,,,
JVASP-69017,BaNa2Pd,0.01456,0.0,na,0.3333,,,,,
JVASP-69375,BaSn2Pb,-0.3659,0.0,na,0.1245,,,,,
JVASP-66308,Ba4OsW,1.78538,0.0,na,1.8782,,,,,
JVASP-66076,Ba4MgW,1.21501,0.0,0.0,1.3583,,,,,
JVASP-66620,Ba4ZrRe,1.54741,0.0,na,1.6422,,,,,
JVASP-66266,Ba4TiRu,1.3774,0.0,0.0,1.6324,,,,,
JVASP-43554,Mn6O5F7,-2.1534,0.0,na,0.0,,,,,
JVASP-66113,Ba4BeTc,1.43103,0.0,na,1.4858,,,,,
JVASP-86636,NdAl2Ga2,-0.45591,0.0,na,0.0,,,,,
JVASP-86176,PrB2Rh2C,-0.60846,0.0,na,0.0,,,,,
JVASP-85955,HgCSO3F3,-1.20004,3.361,4.647,0.1466,,,,,
JVASP-86073,Er5Ni2Te2,-0.85777,0.0,na,0.0,,,,,
JVASP-52573,LiAgF4,-1.79936,1.129,na,0.0313,,,,,
JVASP-62528,UFe2B6,-0.50988,0.0,na,0.0001,,,,,
JVASP-85610,PuS2,-1.69929,0.0,na,0.0,,,,,
JVASP-65757,BaSiBi2,-0.10671,0.0,na,0.4149,,,,,
JVASP-14657,Zr2Ni,-0.36208,0.0,na,0.0,,,,,
JVASP-65718,BaP2Ru,0.46188,0.0,0.0,1.3944,,,,,
JVASP-65500,BaSc2Be,0.21345,0.0,0.0,0.2762,,,,,
JVASP-65573,BaBi2Br,-0.9531,0.0,na,0.1902,,,,,
JVASP-66431,KBaGe,0.06085,0.0,0.0,0.5105,,,,,
JVASP-4930,NiAg2O2,-0.53467,0.0,0.0,0.0414,,,,,
JVASP-63107,YbBiAu,-0.77092,0.0,0.0,0.0,,,,,
JVASP-22529,CaClF,-3.38756,5.652,7.47,0.0,,,,,
JVASP-42568,Li2CuNiO4,-1.36115,0.0,0.0,0.0855,,,,,
JVASP-48881,Li2CoSiO4,-2.20549,0.553,na,0.0795,,,,,
JVASP-91679,BC2N,0.16276,1.088,1.91,0.8588,,,,,
JVASP-66346,Ba4MgRe,1.22798,0.0,na,1.2785,,,,,
JVASP-63745,PrNi2As2,-0.81588,0.0,na,0.0,,,,,
JVASP-92173,Co3W,-0.2515,0.0,na,0.0,,,,,
JVASP-86757,TcBr3,-0.38202,0.0,0.0,0.0103,,,,,
JVASP-47996,Li2MnF4,-2.73822,2.731,na,0.1143,,,,,
JVASP-69054,Ba2ScIn,0.01168,0.0,0.0,0.3175,,,,,
JVASP-69096,BaMn2Sn,0.58515,0.0,0.0,0.9713,,,,,
JVASP-66544,Ba4CoPd,0.93603,0.0,na,1.1727,,,,,
JVASP-42253,Li2V3TeO8,-2.18487,0.0,na,0.1593,,,,,
JVASP-63291,BaB2F8,-3.35667,8.456,na,0.0001,,,,,
JVASP-63587,TbInAu,-0.77238,0.0,na,0.0002,,,,,
JVASP-85896,Sc3FeC4,-0.54843,0.0,na,0.0,,,,,
JVASP-88661,TeSeO4,-0.9407,2.862,na,0.0114,,,,,
JVASP-88238,TeHO3,-0.9909,2.313,na,0.0234,,,,,
JVASP-66621,Ba4VSi,1.16127,0.0,na,1.3842,,,,,
JVASP-66684,Ba4NbSi,1.01717,0.0,na,1.2558,,,,,
JVASP-48688,NaCr4O8,-2.11013,0.0,na,0.028,,,,,
JVASP-66656,Ba2InW,0.65781,0.0,na,1.1023,,,,,
JVASP-61624,ErAu4,-0.64543,0.0,0.0,0.0001,,,,,
JVASP-28402,MoWSe4,-0.56769,1.159,1.287,0.0652,,,,,
JVASP-48334,Mn2OF3,-2.21658,0.016,0.0,0.0,,,,,
JVASP-69172,BaSnSb2,-0.36942,0.0,na,0.22,,,,,
JVASP-52786,FeOF,-1.69603,0.0,na,0.1449,,,,,
JVASP-66177,Ba4TaTc,1.73449,0.0,na,1.9004,,,,,
JVASP-66268,Ba4SbRh,0.39833,0.0,na,0.9174,,,,,
JVASP-69221,BaHfZr4,0.53845,0.0,0.0,0.5429,,,,,
JVASP-66077,Ba4MnSi,1.17396,0.0,na,1.3733,,,,,
JVASP-12037,MnSe,-0.2989,0.0,na,0.0477,,,,,
JVASP-65719,Ba2SbMo,0.34207,0.0,na,1.0628,,,,,
JVASP-86701,CrFe2Se4,-0.30493,0.0,na,0.0903,,,,,
JVASP-65539,BaCd2Te,-0.4902,0.0,0.0,0.4685,,,,,
JVASP-69338,BaSr2Tl,-0.24535,0.0,na,0.0206,,,,,
JVASP-66348,BaBiW,1.49806,0.0,na,2.3078,,,,,
JVASP-91631,Ba3CaO4,-2.73764,2.077,3.523,0.1614,,,,,
JVASP-66152,BaSnPb,-0.06821,0.0,0.0,0.5219,,,,,
JVASP-85332,LiEu2Si3,-0.64562,0.0,na,0.0,,,,,
JVASP-66586,Ba4SbRu,0.66581,0.0,na,1.1463,,,,,
JVASP-90660,SrFeAsF,-1.93754,0.0,na,0.0,,,,,
JVASP-69018,BaBeNb2,1.14165,0.0,na,1.2359,,,,,
JVASP-66114,Ba4CoSi,0.9208,0.0,na,1.122,,,,,
JVASP-43647,Li2FeF4,-2.58106,0.077,0.0,0.1058,,,,,
JVASP-22725,HfSiRu2,-0.73328,0.125,na,0.0,,,,,
JVASP-65606,BaCd2Te,-0.49014,0.0,0.0,0.4686,,,,,
JVASP-65501,BaNaMo2,0.62196,0.0,na,0.6487,,,,,
JVASP-66432,Ba4ReSi,1.33695,0.0,na,1.5362,,,,,
JVASP-69055,KBa2Si,-0.04054,0.0,na,0.2606,,,,,
JVASP-61049,CaNi12B6,-0.34478,0.0,na,0.0,,,,,
JVASP-66623,BaZnCd,0.07335,0.0,na,0.4297,,,,,
JVASP-15148,DySi2Pt2,-0.96529,0.0,0.0,0.0,,,,,
JVASP-87962,NaSb3F10,-2.54039,4.93,na,0.0,,,,,
JVASP-89098,Zr6Ga2Co,-0.41945,0.0,na,0.0,,,,,
JVASP-5266,Sr2InI5,-1.4544,2.827,3.457,0.0239,,,,,
JVASP-68937,BaSnPb2,-0.30335,0.0,na,0.1604,,,,,
JVASP-3123,SrAgP,-0.84135,0.184,0.748,0.0,,,,,
JVASP-42837,Li4Mn3OF8,-2.59016,0.136,na,0.0,,,,,
JVASP-69097,BaReBr2,0.18513,0.0,na,1.9514,,,,,
JVASP-18740,LiPt2,-0.44524,0.0,na,0.0924,,,,,
JVASP-87313,Ag2PHO4,-1.28683,1.436,2.596,0.0,,,,,
JVASP-66349,BaSnSe,-0.40854,0.0,na,1.0527,,,,,
JVASP-63747,HoCu4Au,-0.37781,0.0,na,0.0,,,,,
JVASP-86475,NiRh2Se4,-0.33735,0.0,na,0.0438,,,,,
JVASP-86122,PrMg2Ni9,-0.28017,0.0,na,0.0164,,,,,
JVASP-66587,BaCaZn,0.40778,0.0,na,0.6328,,,,,
JVASP-62801,Co2B2O5,-1.71936,0.0,0.0,0.122,,,,,
JVASP-48418,Mn3O2F4,-2.19964,0.0,na,0.0,,,,,
JVASP-91541,EuCu4P3,-0.43932,0.0,na,0.0,,,,,
JVASP-66078,Ba4IrSe,0.40926,0.0,na,1.1399,,,,,
JVASP-68976,BaV2Bi,0.44827,0.0,0.0,0.9164,,,,,
JVASP-66227,BaLiBi,-0.29135,0.386,0.892,0.5174,,,,,
JVASP-65502,BaIrRu,1.76066,0.0,na,1.7949,,,,,
JVASP-65687,Ba2SnS,-0.9624,0.0,0.0,0.5613,,,,,
JVASP-66115,Ba4VIr,1.3785,0.0,na,1.5613,,,,,
JVASP-66269,Ba4MoPb,0.86803,0.0,na,1.1728,,,,,
JVASP-69258,BaSr2Sb,-0.53004,0.0,0.0,0.2069,,,,,
JVASP-61379,Li2NdAs2,-0.947,0.0,na,0.1043,,,,,
JVASP-18619,Mn2Au,0.23035,0.0,0.0,0.2578,,,,,
JVASP-69019,Ba2SnTe,-0.956,0.0,na,0.384,,,,,
JVASP-66624,BaNbTl,1.365,0.0,0.0,1.6946,,,,,
JVASP-90882,CaFeAsF,-1.94137,0.0,0.0,0.0,,,,,
JVASP-89396,NaCdH3C3O6,-1.12542,4.474,na,0.1023,,,,,
JVASP-86246,AlAu2,-0.33512,0.0,na,0.0,,,,,
JVASP-66178,Ba4SiSe,0.16131,0.0,0.0,1.0913,,,,,
JVASP-66154,Ba4ZnOs,1.10967,0.0,na,1.2119,,,,,
JVASP-69134,BaHf2Br,0.26361,0.0,0.0,1.1467,,,,,
JVASP-69056,BaSc4Rh,0.45973,0.0,na,0.8167,,,,,
JVASP-65645,BaSr2Te,-0.78559,0.0,0.0,0.1721,,,,,
JVASP-65540,BaBi2Cl,-1.07175,0.0,na,0.1994,,,,,
JVASP-62168,HfAu4,-0.43518,0.0,na,0.0,,,,,
JVASP-66505,BaMgTe,-0.666,1.044,1.091,0.6057,,,,,
JVASP-62364,Lu5Te2Au2,-1.00996,0.0,na,0.0,,,,,
JVASP-66389,BaInTe,-0.57592,0.0,1.578,0.6975,,,,,
JVASP-62946,UFeB4,-0.52957,0.0,0.0,0.0,,,,,
JVASP-61054,MnAsRh,-0.23728,0.0,na,0.0484,,,,,
JVASP-69293,BaCrCl2,-0.99876,0.0,0.0,1.0232,,,,,
JVASP-68978,Ba2ZrCl,-0.00594,0.0,na,1.005,,,,,
JVASP-66351,Ba4SiTc,1.19915,0.0,na,1.3984,,,,,
JVASP-66310,BaLiCl,-0.74466,0.462,na,0.6234,,,,,
JVASP-88429,Yb2O3,-2.53853,0.0,na,0.3548,,,,,
JVASP-12051,BiOF,-1.96668,2.983,4.473,0.0198,,,,,
JVASP-42749,MnOF,-2.1157,0.0,na,0.0,,,,,
JVASP-66471,Ba4MoPt,1.12276,0.0,0.0,1.4108,,,,,
JVASP-88055,CaTa2O6,-3.16458,2.534,na,0.0886,,,,,
JVASP-66588,Ba4TlPt,0.40079,0.0,na,0.8536,,,,,
JVASP-66625,Ba2CrW,1.81192,0.0,na,1.9511,,,,,
JVASP-66228,Ba4InOs,0.98791,0.0,na,1.1914,,,,,
JVASP-48235,Li2Mn3SbO8,-1.76332,0.0,0.0,0.1912,,,,,
JVASP-90606,Ca3Mg,-0.03111,0.0,0.0,0.0354,,,,,
JVASP-14556,GaRh,-0.62042,0.0,0.0,0.0,,,,,
JVASP-66270,Ba4ScTa,1.16999,0.0,0.0,1.17,,,,,
JVASP-14705,YbB6,-0.49759,0.013,0.15,0.0,,,,,
JVASP-92223,LiNdSe2,-1.7258,1.557,na,0.0,,,,,
JVASP-90406,FeSe,-0.09223,0.0,na,0.1988,,,,,
JVASP-66080,Ba4TiOs,1.50696,0.0,0.0,1.7614,,,,,
JVASP-69222,BaTl2Cl,-0.7231,0.0,na,0.4662,,,,,
JVASP-66155,Ba4TaPd,1.13955,0.0,0.0,1.3743,,,,,
JVASP-69021,BaBe2Br,0.36416,0.0,na,1.2473,,,,,
JVASP-66546,BaNaSb,-0.45664,0.693,na,0.3772,,,,,
JVASP-86327,Th3B2C3,-0.53101,0.0,na,0.0,,,,,
JVASP-66311,BaCoTe,0.26048,0.0,na,1.536,,,,,
JVASP-66685,BaYSn,0.29857,0.0,0.132,0.9997,,,,,
JVASP-90563,Mg3Ti,0.21611,0.0,na,0.2161,,,,,
JVASP-85497,UH2O4,-2.20264,1.785,1.765,0.067,,,,,
JVASP-20089,SmPt2,-1.10507,0.0,0.0,0.0,,,,,
JVASP-63450,KAuSe2,-0.62449,0.858,1.505,0.0,,,,,
JVASP-66352,Ba4PtPb,0.29631,0.0,na,0.8891,,,,,
JVASP-66179,BaLiPb,0.10249,0.0,0.0,0.6316,,,,,
JVASP-91722,Ba2TeO,-2.33548,1.749,2.482,0.0055,,,,,
JVASP-66390,BaHgCl,-1.05407,0.0,3.928,0.4856,,,,,
JVASP-90067,SnN2Cl6,0.81913,0.0,na,1.32,,,,,
JVASP-65688,KBaHg2,-0.29345,0.0,na,0.0543,,,,,
JVASP-66116,Ba4YTc,1.16445,0.0,0.0,1.2204,,,,,
JVASP-65541,BaInPb2,-0.29308,0.0,na,0.1495,,,,,
JVASP-86935,LiLaTiO4,-3.29243,2.312,2.624,0.0236,,,,,
JVASP-88943,Ba3LiN,-0.32322,0.0,na,0.0509,,,,,
JVASP-66433,BaCaV,1.2544,0.0,0.0,1.2623,,,,,
JVASP-68980,BaReBr2,0.16661,0.0,na,1.9328,,,,,
JVASP-63295,ThAs12Os4,-0.34813,0.415,0.527,0.0118,,,,,
JVASP-65421,BaTiPd2,-0.42601,0.0,0.0,0.1613,,,,,
JVASP-62370,LaAl2,-0.52747,0.0,na,0.0,,,,,
JVASP-66229,Ba4FeNi,1.34708,0.0,na,1.3672,,,,,
JVASP-66156,BaCdPb,-3e-05,0.0,na,0.5355,,,,,
JVASP-66549,BaMgTl,0.18726,0.0,na,0.5208,,,,,
JVASP-66589,Ba4SbPt,0.16697,0.0,na,0.9355,,,,,
JVASP-43968,LiVF3,-2.75988,1.425,na,0.1471,,,,,
JVASP-62535,Tb10B2Br15,-1.60475,0.0,na,0.0,,,,,
JVASP-69022,Ba2SnSe,-0.99634,0.0,na,0.4858,,,,,
JVASP-62948,TaNiB,-0.59159,0.0,na,0.0,,,,,
JVASP-5362,As4S3,-0.10895,1.808,2.423,0.023,,,,,
JVASP-52217,CeZr7O16,-3.65661,2.486,na,0.0449,,,,,
JVASP-66081,Ba4RePb,1.0832,0.0,na,1.3879,,,,,
JVASP-63109,LuB4Ru,-0.65428,0.0,na,0.0,,,,,
JVASP-69340,BaSr2Sc,0.2029,0.0,0.0,0.2284,,,,,
JVASP-65759,BaTi4Br,0.60615,0.0,0.0,1.1949,,,,,
JVASP-69294,BaYSb2,-0.81634,0.0,na,0.3277,,,,,
JVASP-15003,Nb3Pt,-0.38912,0.0,0.0,0.0,,,,,
JVASP-66312,Ba4NiPb,0.53558,0.0,na,0.8403,,,,,
JVASP-87857,Al2Cd3Si3O12,-2.5414,3.244,na,0.0,,,,,
JVASP-66657,Ba4BiP,0.07788,0.0,0.0,0.9728,,,,,
JVASP-69223,BaLiBi2,-0.34616,0.0,na,0.3687,,,,,
JVASP-66117,Ba4ReIr,1.54009,0.0,na,1.5579,,,,,
JVASP-63865,AuCl2,-0.24141,0.742,0.721,0.0,,,,,
JVASP-66353,Ba4SbPd,0.18241,0.0,na,0.8976,,,,,
JVASP-62807,TbCo12B6,-0.34577,0.0,0.0,0.0,,,,,
JVASP-66506,BaCdSn,-0.0141,0.0,0.0,0.602,,,,,
JVASP-66272,BaSrPb,-0.11082,0.324,0.505,0.5044,,,,,
JVASP-89931,TaMnSi,-0.45907,0.0,na,0.0213,,,,,
JVASP-22594,CaCrF6,-3.05998,0.0,0.0,0.1074,,,,,
JVASP-48952,VF4,-2.8425,0.824,na,0.0652,,,,,
JVASP-63455,GaAsO4,-1.52688,3.198,5.197,0.0,,,,,
JVASP-66434,BaCrBi,0.58149,0.0,na,1.2056,,,,,
JVASP-62955,DyFeB4,-0.63497,0.0,na,0.005,,,,,
JVASP-15039,LiPd,-0.4637,0.0,0.0,0.0055,,,,,
JVASP-65608,BaCdP2,-0.19144,0.0,0.0,0.5544,,,,,
JVASP-66157,Ba4HfTa,1.45541,0.0,na,1.4554,,,,,
JVASP-68981,BaReSe4,0.58533,0.0,na,1.516,,,,,
JVASP-63752,YbAlB4,-0.42746,0.0,na,0.027,,,,,
JVASP-69173,BaSrTa4,0.80675,0.0,0.0,0.819,,,,,
JVASP-65720,BaCrSi2,0.5971,0.0,0.0,0.9817,,,,,
JVASP-66472,BaSrSb,-0.31919,0.0,1.408,0.6492,,,,,
JVASP-66230,BaMgZn,0.27656,0.0,0.0,0.4943,,,,,
JVASP-69100,K2BaGa,0.12749,0.0,0.0,0.3383,,,,,
JVASP-43799,LiVF3,-2.79626,1.386,na,0.1107,,,,,
JVASP-66626,BaSrHg,0.21421,0.0,0.0,0.5715,,,,,
JVASP-65646,BaTlSn2,-0.3286,0.0,0.0,0.1618,,,,,
JVASP-91972,CoF3,-1.81442,0.0,na,0.0207,,,,,
JVASP-69057,K2BaBe,0.57772,0.0,0.0,0.582,,,,,
JVASP-66686,KBaBi,-0.51805,1.024,1.743,0.2388,,,,,
JVASP-69259,BaNa2V,0.99616,0.0,0.0,1.026,,,,,
JVASP-63299,MnNiAs,-0.1663,0.0,na,0.0095,,,,,
JVASP-66180,BaCdHg,-0.05934,0.0,0.0,0.3335,,,,,
JVASP-90790,Zr3Fe,-0.16867,0.0,na,0.0,,,,,
JVASP-66857,BeGaFe,0.178,0.0,na,0.4163,,,,,