jid,formula,formation_energy_per_atom,optb88vdw_bandgap,mbj_bandgap,ehull,spacegroup_number,natoms,volume,bulk_modulus_kv,shear_modulus_gv
JVASP-68265,MnBeRe2,0.1103,0.0,0.0,0.2447,,,,,
JVASP-86547,CF2,-1.27297,4.855,6.458,0.239,,,,,
JVASP-89222,Ta2CrO6,-2.74078,0.0,na,0.0259,,,,,
JVASP-85699,Li2H2Pt,-0.53394,0.0,0.0,0.0,,,,,
JVASP-67255,MgBe2Te,0.51975,0.0,na,0.9957,,,,,
JVASP-68008,BeZn2P,0.35226,0.0,na,0.4817,,,,,
JVASP-52352,Bi3O4F,-1.49577,2.076,na,0.1016,,,,,
JVASP-67600,NaBeRu2,0.49101,0.0,0.0,0.629,,,,,
JVASP-75808,Hg2SbAs,0.37928,0.002,na,0.3912,,,,,
JVASP-86343,Sm2Fe17,0.03226,0.0,na,0.0519,,,,,
JVASP-15484,DyFe2Si2,-0.67008,0.0,na,0.0,,,,,
JVASP-67564,LiBe2Cl,-0.24342,0.0,na,0.7487,,,,,
JVASP-89951,LuSnPt,-1.08119,0.0,na,0.0,,,,,
JVASP-75479,BeNb2As,0.33035,0.0,na,0.7475,,,,,
JVASP-66949,YBePb,-0.25327,0.0,na,0.1081,,,,,
JVASP-68627,BeVMo,0.31935,0.0,na,0.5101,,,,,
JVASP-75662,Mn2GaAs,0.33442,0.0,na,0.5017,,,,,
JVASP-75551,AsRuPt2,0.19401,0.0,na,0.3748,,,,,
JVASP-15189,Ho2Al3Si2,-0.53605,0.0,na,0.0,,,,,
JVASP-90755,Sc3IrC4,-0.59898,0.0,na,0.0132,,,,,
JVASP-75736,NbAsOs2,0.3536,0.0,na,0.6765,,,,,
JVASP-75770,SiAsW2,0.20254,0.0,na,0.5251,,,,,
JVASP-75887,AsOs2W,0.43117,0.0,na,0.6423,,,,,
JVASP-90163,ErAlPd,-0.91493,0.0,na,0.0114,,,,,
JVASP-67940,Y2BeBr,-0.18217,0.0,0.0,0.4996,,,,,
JVASP-75704,MoAsSe,0.15571,0.0,na,0.5953,,,,,
JVASP-3501,Na2PtO2,-1.26195,1.652,2.286,0.0,,,,,
JVASP-42675,Sm2V2O7,-3.10897,0.0,na,0.0,,,,,
JVASP-67840,BeTlSi,0.60077,0.0,na,0.6024,,,,,
JVASP-86316,SrCd2,-0.40742,0.0,na,0.0,,,,,
JVASP-73931,TiBeV2,-0.0128,0.0,na,0.0736,,,,,
JVASP-73358,Be2TcP,-0.22209,0.0,0.0,0.0982,,,,,
JVASP-68206,KBeTc2,0.45121,0.0,na,0.5355,,,,,
JVASP-74108,BeInRu2,0.0634,0.0,na,0.2391,,,,,
JVASP-92189,Mg3CO4,-1.73592,0.261,na,0.8469,,,,,
JVASP-67025,Be2CoHg,0.14435,0.0,na,0.3916,,,,,
JVASP-75809,CuSnAs,0.07554,0.0,na,0.1226,,,,,
JVASP-14920,Li2NdAs2,-0.947,0.0,na,0.1043,,,,,
JVASP-91648,BC7,0.18562,0.0,na,0.2024,,,,,
JVASP-91695,TbPt,-1.34862,0.0,na,0.0,,,,,
JVASP-68154,CaMn2Be,0.64083,0.0,na,0.7332,,,,,
JVASP-75588,Ti2MoAs,-0.17975,0.0,na,0.3863,,,,,
JVASP-90684,Os,0.21154,0.0,na,0.0,,,,,
JVASP-85643,U4Ga12Fe,-0.2245,0.0,na,0.0007,,,,,
JVASP-87895,Rb6Ge2O7,-1.8472,3.11,na,0.0,,,,,
JVASP-48246,Li4Fe2SiO7,-2.04595,0.04,na,0.1384,,,,,
JVASP-67312,BeGaSi,0.41335,0.0,na,0.4149,,,,,
JVASP-48912,Mg11Mn2O13,-2.7347,0.457,na,0.0601,,,,,
JVASP-66853,BeMoPd,-0.1991,0.0,na,0.1744,,,,,
JVASP-90531,V2CoO6,-2.07466,0.0,na,0.0356,,,,,
JVASP-68687,BeTl2Ge,0.34552,0.0,na,0.3455,,,,,
JVASP-76261,Li2PrGe,-0.38836,0.0,na,0.1472,,,,,
JVASP-88794,LaInPd2,-0.81184,0.0,na,0.0,,,,,
JVASP-73936,Zr2BeSn,0.06521,0.0,na,0.5145,,,,,
JVASP-67767,NaBe2Mo,0.45422,0.0,na,0.6782,,,,,
JVASP-67418,Be2VRu,-0.09576,0.0,0.0,0.2146,,,,,
JVASP-68629,HfBe2Tc,-0.17841,0.0,na,0.1907,,,,,
JVASP-67941,BeTlW2,0.59229,0.0,na,0.9073,,,,,
JVASP-1975,Ca2PI,-1.55531,1.602,2.149,0.0118,,,,,
JVASP-75811,LiGaAs,-0.1898,0.0,na,0.309,,,,,
JVASP-67725,BePBr,0.17517,0.0,0.0,0.767,,,,,
JVASP-88474,K4UP2O10,-2.64806,2.218,na,0.0,,,,,
JVASP-68516,Na2BeBr,-0.12113,0.0,0.51,0.7345,,,,,
JVASP-92251,Li2BiF5,-2.7786,4.742,na,0.1122,,,,,
JVASP-68887,Sr2CaBe,0.21428,0.0,0.0,0.2609,,,,,
JVASP-87027,B5W2,0.1764,0.0,na,0.5843,,,,,
JVASP-86193,Sr2LiCoN2,-0.69147,0.269,na,-0.0,,,,,
JVASP-67802,KBe2Si,1.12347,0.0,na,1.1268,,,,,
JVASP-91784,Hf2TlC,-0.66316,0.0,na,0.0,,,,,
JVASP-88321,BH5CSN2,-0.23587,3.86,na,0.2127,,,,,
JVASP-67257,Be2SiNi,-0.09638,0.0,na,0.1645,,,,,
JVASP-72739,Be2SiTc,-0.11581,0.0,0.0,0.1442,,,,,
JVASP-67684,NaBeBr,0.02602,0.666,1.185,1.1629,,,,,
JVASP-68332,CaBeTl2,0.19122,0.0,na,0.4713,,,,,
JVASP-75621,Mo2AsP,0.36397,0.0,na,0.799,,,,,
JVASP-75589,AsIrOs2,0.76874,0.0,na,0.9351,,,,,
JVASP-48978,LiMn2O3F,-2.11756,0.0,na,0.0,,,,,
JVASP-86772,Tl2CdGeTe4,-0.26577,0.269,0.761,0.0,,,,,
JVASP-67103,MnBeSb,0.26116,0.295,na,0.3787,,,,,
JVASP-75519,CuAsPt2,0.04751,0.0,na,0.3195,,,,,
JVASP-86143,TmAlRh,-0.98803,0.0,na,0.0,,,,,
JVASP-90225,PtN2O6,-0.06878,0.0,na,0.2653,,,,,
JVASP-68009,BeV2Pb,0.49091,0.0,na,0.5668,,,,,
JVASP-75552,TaAsAu,0.72391,0.0,na,1.0596,,,,,
JVASP-67639,BeBiPb,0.45994,0.0,0.0,0.4601,,,,,
JVASP-75812,MgTaAs,1.0056,0.0,na,1.5194,,,,,
JVASP-90109,UInRh,-0.31975,0.0,na,0.0393,,,,,
JVASP-68818,ScBeTe2,-0.17072,0.0,0.0,0.742,,,,,
JVASP-53313,GaFe3,-0.07854,0.0,0.0,0.0192,,,,,
JVASP-48484,Mn2O3F,-1.9237,0.0,0.0,0.0,,,,,
JVASP-68208,BeRe2Cl,0.94905,0.0,na,1.5759,,,,,
JVASP-67565,KBeIr,-0.0484,0.0,na,0.1601,,,,,
JVASP-67768,BeSnOs4,0.91125,0.0,na,0.9113,,,,,
JVASP-72766,ScBeCr,0.54717,0.0,na,0.6519,,,,,
JVASP-88690,SbCl3F2,-1.29211,1.44,na,0.0116,,,,,
JVASP-75843,Sc2MnAs,-0.19821,0.0,0.032,0.6298,,,,,
JVASP-86424,NaNbO2,-2.40533,1.503,1.68,0.0,,,,,
JVASP-86268,Ce3SiPt5,-1.11912,0.0,na,0.0,,,,,
JVASP-75888,CdCuAs,0.2936,0.0,na,0.34,,,,,
JVASP-91735,FeCu3S4,-0.35555,0.0,na,0.0142,,,,,
JVASP-74033,Ti2BeBi,0.12436,0.0,0.0,0.2984,,,,,
JVASP-68517,Be2HgTe,0.43305,0.0,na,0.6446,,,,,
JVASP-67026,LiBe2Pb,0.45817,0.0,na,0.6048,,,,,
JVASP-88089,Pr3UCl3O6,-3.27274,1.6,1.685,0.0,,,,,
JVASP-92242,TiCu3O4,-1.51643,0.0,na,0.0868,,,,,
JVASP-48716,MnPH2CO6,-1.55295,1.549,na,0.0591,,,,,
JVASP-68689,BeBiSe,-0.15349,0.0,0.0,0.4667,,,,,
JVASP-75663,Nb2VAs,0.01256,0.0,0.0,0.3645,,,,,
JVASP-67164,LiBeRe,0.22779,0.0,na,0.4073,,,,,
JVASP-68888,BeNbV,0.373,0.0,0.0,0.4987,,,,,
JVASP-68454,Li2BeCl,-0.34266,0.0,0.06,0.6496,,,,,
JVASP-76262,Ba3Ag2,-0.28123,0.0,na,0.0002,,,,,
JVASP-1333,CaS,-2.38214,2.347,3.289,0.0,,,,,
JVASP-68575,HfBeSb2,0.2112,0.0,0.0,0.5567,,,,,
JVASP-75737,Ti2AsP,-0.12326,0.0,na,0.9592,,,,,
JVASP-75554,AsIrPt2,0.21487,0.0,na,0.3957,,,,,
JVASP-91886,Mg7V,0.21388,0.0,na,0.2139,,,,,
JVASP-69459,Be2CdCu,0.16827,0.0,na,0.28,,,,,
JVASP-68754,Sc2BeGa,-0.10939,0.0,0.0,0.3273,,,,,
JVASP-90620,DyGa2Ni,-0.65121,0.0,na,0.0,,,,,
JVASP-87093,Ca2Pt3O8,-1.55031,1.082,1.328,0.0,,,,,
JVASP-75772,ZrV2As,-0.04409,0.0,na,0.545,,,,,
JVASP-88003,Ho3InN,-1.09666,0.0,na,0.0,,,,,
JVASP-50775,Hf2N2O,-2.37309,2.061,3.115,0.0777,,,,,
JVASP-44920,VSb4O12,-1.51125,0.083,na,0.0898,,,,,
JVASP-67841,BePPb,0.22848,0.0,na,0.3432,,,,,
JVASP-67890,Na2CaBe,0.39592,0.0,na,0.4396,,,,,
JVASP-68068,BeNi2Ir,-0.14039,0.0,0.0,0.1495,,,,,
JVASP-62724,BS2N2OF7,-1.38115,5.318,7.494,0.2958,,,,,
JVASP-75522,SnAsRu,0.05554,0.0,na,0.3055,,,,,
JVASP-67601,MgBeGe,0.28647,0.0,0.0,0.4598,,,,,
JVASP-68690,BeFeSe,0.15969,0.0,na,0.7811,,,,,
JVASP-14561,CaGa4,-0.38208,0.0,na,0.0,,,,,
JVASP-68630,BeSn2P,0.5274,0.0,0.0,0.6717,,,,,
JVASP-68405,NaBeSn2,0.28993,0.0,na,0.4118,,,,,
JVASP-75480,VAsPt2,-0.12872,0.0,0.0,0.3958,,,,,
JVASP-22713,K4I2O,-1.48248,1.386,2.774,0.0,,,,,
JVASP-85981,BaBi4Br2O6,-1.50101,0.0,na,0.1422,,,,,
JVASP-90576,MgZn,-0.08406,0.0,na,0.0249,,,,,
JVASP-86957,LaSiNi,-0.74716,0.0,na,0.0,,,,,
JVASP-86714,KNaB2H8,-0.39508,6.448,9.029,0.0164,,,,,
JVASP-86492,LaMg2Ni9,-0.2886,0.0,na,0.0131,,,,,
JVASP-67640,BeHgSe2,-0.06097,0.0,na,0.4109,,,,,
JVASP-68011,BeInOs2,0.27767,0.0,na,0.279,,,,,
JVASP-69722,Be2FeTc,-0.09278,0.0,0.0,0.1089,,,,,
JVASP-75706,NbAsIr2,-0.00692,0.0,0.0,0.5865,,,,,
JVASP-75814,AsP2Cl,0.62881,0.0,na,0.8611,,,,,
JVASP-75738,GaSiAs,0.4618,0.0,na,0.6864,,,,,
JVASP-85770,BaEuFe2O5,-2.40563,0.0,na,0.1011,,,,,
JVASP-67566,LaBeP2,-0.29747,0.0,na,0.6626,,,,,
JVASP-18620,Mn2Au5,-0.02852,0.0,na,0.0225,,,,,
JVASP-67685,KBeHg,0.37632,0.0,na,0.4964,,,,,
JVASP-14582,ThRh3,-0.73298,0.0,na,0.0259,,,,,
JVASP-87161,Y3Sc2Al3O12,-3.69277,4.461,na,0.0001,,,,,
JVASP-75773,Ga2FeAs,0.3998,0.0,na,0.6489,,,,,
JVASP-69460,Be2TcRh,-0.28497,0.0,na,0.0967,,,,,
JVASP-74109,BeFeMo2,0.10504,0.0,na,0.2289,,,,,
JVASP-75555,TlCuAs,0.2247,0.0,na,0.2247,,,,,
JVASP-75481,TiRe2As,0.19498,0.0,na,0.6637,,,,,
JVASP-85429,CaMnBi2,-0.22752,0.0,na,0.217,,,,,
JVASP-86087,Ca3N2,-0.99465,1.733,3.019,0.032,,,,,
JVASP-67515,ZrBeGa,-0.1324,0.0,na,0.3402,,,,,
JVASP-86661,KNiAu3C6N6,0.18734,1.338,na,0.2854,,,,,
JVASP-67420,HfBeBi,0.28229,0.0,0.0,0.4803,,,,,
JVASP-91597,UInPt2,-0.49116,0.0,0.0,0.1525,,,,,
JVASP-86344,LaIr2,-0.80415,0.0,na,0.0,,,,,
JVASP-13764,LiSi3Pd,0.12592,0.0,na,0.4247,,,,,
JVASP-66854,BeInBr,0.24276,0.0,0.0,0.7789,,,,,
JVASP-67943,BeCrCu2,0.07466,0.0,0.0,0.1532,,,,,
JVASP-89952,ScMnGe,-0.54967,0.0,na,0.0185,,,,,
JVASP-68892,Be2NbP,-0.01029,0.0,na,0.4997,,,,,
JVASP-68756,LaBe2Si,0.23271,0.0,na,0.6246,,,,,
JVASP-67602,MgBeTc2,-0.01374,0.0,na,0.0684,,,,,
JVASP-68693,ZrBe2Sb,0.24294,0.0,na,0.6611,,,,,
JVASP-76272,Li7IN2,0.16175,0.0,na,0.8879,,,,,
JVASP-43810,LiFeF4,-2.4948,1.004,na,0.0799,,,,,
JVASP-42270,FeOF,-1.70706,0.0,na,0.1339,,,,,
JVASP-73944,BeV2Pt,-0.27839,0.0,0.0,0.1901,,,,,
JVASP-68271,BeCuPd2,-0.16559,0.0,0.0,0.2083,,,,,
JVASP-68157,BeZn2Mo,0.27241,0.0,na,0.4143,,,,,
JVASP-67643,TiBeIr4,0.06305,0.0,na,0.6728,,,,,
JVASP-75739,SbAsIr,-0.11429,0.0,na,0.2773,,,,,
JVASP-91649,Zr3Co,-0.06936,0.0,na,0.1831,,,,,
JVASP-86195,PdCl2,-0.44889,0.658,na,0.0342,,,,,
JVASP-75482,CuAsW2,0.33282,0.0,na,0.6112,,,,,
JVASP-67842,NaBe2Ru,0.31579,0.0,na,0.5887,,,,,
JVASP-90038,ZrGaPt,-0.97989,0.0,na,0.0073,,,,,
JVASP-90757,TaS3,-0.1052,0.0,na,0.7587,,,,,
JVASP-50352,Li4SnB2O6,-2.25145,2.916,na,0.0817,,,,,
JVASP-68581,BeTl2Se,0.41674,0.0,na,0.8819,,,,,
JVASP-90335,K2CuCl4O2,-1.07656,0.423,na,0.0398,,,,,
JVASP-75815,MnNb2As,0.14409,0.0,0.0,0.522,,,,,
JVASP-16093,SmSiRu,-0.74357,0.0,0.0,0.0,,,,,
JVASP-85353,EuIO,-2.89458,3.645,4.571,0.0,,,,,
JVASP-90849,CuN,0.31712,0.0,na,0.3249,,,,,
JVASP-75557,TaZnAs,0.41303,0.0,na,0.7487,,,,,
JVASP-91555,BC7,0.18865,0.0,na,0.2055,,,,,
JVASP-91836,CaSn2Rh,-0.671,0.0,na,0.0,,,,,
JVASP-85700,LaSb2Au,-0.78976,0.0,na,0.0331,,,,,
JVASP-86892,AuBr,-0.06958,1.871,2.687,0.0189,,,,,
JVASP-3774,K2MgCl4,-2.05025,5.104,7.562,0.0,,,,,
JVASP-85521,EuGe2Rh2,-0.87192,0.0,na,0.0,,,,,
JVASP-92884,HfMg6Cr,0.24034,0.0,na,0.2614,,,,,
JVASP-67313,CaBePb,0.13316,0.0,na,0.5501,,,,,
JVASP-42767,VOF,-2.67878,0.0,na,0.0426,,,,,
JVASP-75816,Nb2NiAs,0.1802,0.002,na,0.6091,,,,,
JVASP-91696,SmAsRuO,-1.94115,0.0,na,0.0,,,,,
JVASP-75590,As4RuBr,0.83464,0.005,0.0,1.1046,,,,,
JVASP-67686,NaBe2Co,0.4947,0.0,na,0.745,,,,,
JVASP-75740,Fe2AsAu,0.39521,0.0,na,0.4911,,,,,
JVASP-67517,NaBe2Bi,0.63859,0.0,0.0,0.8134,,,,,
JVASP-67726,BeTlTe,0.23416,0.0,na,0.5162,,,,,
JVASP-69536,Be2NbMo,0.10168,0.0,0.0,0.3389,,,,,
JVASP-72771,BeZnCo,0.07068,0.0,na,0.2963,,,,,
JVASP-90227,TcBr6O2,0.59658,0.0,na,1.1616,,,,,
JVASP-89224,V2NiO6,-2.10307,0.529,na,0.0,,,,,
JVASP-88092,ZrCoF6,-3.08209,0.0,na,0.0,,,,,
JVASP-67104,BeCdBr,0.26554,0.0,na,0.8033,,,,,
JVASP-75483,LiAsPt2,-0.25017,0.0,na,0.2955,,,,,
JVASP-68757,Sr2BeSi,0.28466,0.0,na,0.6464,,,,,
JVASP-67769,Mn2BeHg,0.31446,0.0,na,0.4026,,,,,
JVASP-15486,AlVCo2,-0.42291,0.0,0.0,0.0,,,,,
JVASP-91933,Si,0.08587,0.335,0.824,0.0,,,,,
JVASP-89024,Ga2AsRh5,-0.46126,0.0,na,0.0,,,,,
JVASP-69638,KCaBe2,0.76857,0.0,na,0.8416,,,,,
JVASP-75844,TcAsAu,0.93609,0.0,0.0,1.0643,,,,,
JVASP-66855,Be2ZnBr,0.44137,0.0,na,0.8422,,,,,
JVASP-68819,Y2BeGe,-0.2178,0.0,na,0.3661,,,,,
JVASP-73945,Ti2BeSn,0.06827,0.0,na,0.3781,,,,,
JVASP-91514,DySn3,-0.37733,0.0,na,0.0825,,,,,
JVASP-90685,CeCuGe2,-0.53043,0.0,na,0.0,,,,,
JVASP-15599,NdCo2B2,-0.52315,0.0,0.0,0.0,,,,,
JVASP-68518,Be2InTe,0.39184,0.0,0.0,0.6047,,,,,
JVASP-68457,NaBe2Os,0.08128,0.0,na,0.0843,,,,,
JVASP-75523,LiCdAs,-0.35073,0.0,0.377,0.1458,,,,,
JVASP-75558,Ta2BAs,0.86191,0.0,na,1.4964,,,,,
JVASP-92190,Mg3MoO4,-2.26027,0.0,na,0.4294,,,,,
JVASP-22677,CaO2,-2.14444,2.982,4.221,0.0558,,,,,
JVASP-14634,Nb5Sb4,-0.2702,0.0,0.0,0.0,,,,,
JVASP-14922,Ti2N,-1.39649,0.0,na,0.0195,,,,,
JVASP-91785,LiAsSe2,-0.59874,0.74,na,0.0133,,,,,
JVASP-74110,BeGeRh2,-0.31866,0.0,na,0.2307,,,,,
JVASP-69461,BeOsW,0.01424,0.0,na,0.2487,,,,,
JVASP-88480,K4SrSi3O9,-2.73077,4.488,na,0.0,,,,,
JVASP-90804,NaTl,-0.1059,0.0,na,0.0295,,,,,
JVASP-52353,LiCuS,-0.80728,1.048,na,0.0414,,,,,
JVASP-86773,BaSbAu,-0.97371,0.0,na,0.0,,,,,
JVASP-48433,Li3CoO2F,-1.89819,0.189,na,0.257,,,,,
JVASP-67803,HfBeGa,-0.06111,0.0,0.0,0.3334,,,,,
JVASP-75741,TcMo2As,0.20558,0.0,na,0.3387,,,,,
JVASP-86824,SbI3,-0.3086,2.003,2.654,0.038,,,,,
JVASP-88797,SiPb2Se4,-0.51271,1.588,na,0.0,,,,,
JVASP-86144,Er5BiAu2,-0.32885,0.0,na,0.4159,,,,,
JVASP-88004,Ba2MnReO6,-2.38841,0.0,na,0.0,,,,,
JVASP-91985,Bi2CO5,-1.46163,2.353,3.774,0.0,,,,,
JVASP-85646,H4SN2O2,-0.52886,5.61,na,0.1403,,,,,
JVASP-89888,LiP,-0.59277,0.924,na,0.0,,,,,
JVASP-68337,NaBeTl2,0.3827,0.0,0.0,0.4682,,,,,
JVASP-75774,TaAsBr,1.1758,0.0,na,1.8479,,,,,
JVASP-43991,Mn2OF3,-2.22656,0.0,na,0.0,,,,,
JVASP-2169,GeS,-0.35955,1.32,na,0.0,,,,,
JVASP-75889,AsRu2Cl,0.76331,0.0,0.0,1.0841,,,,,
JVASP-74034,BeV2Pb,0.29906,0.0,0.0,0.3749,,,,,
JVASP-68695,BeIn2Cl,0.18048,0.0,na,0.7428,,,,,
JVASP-67166,LiBeIn,0.15078,0.0,0.0,0.362,,,,,
JVASP-3903,Bi2Te2S,-0.32213,0.304,na,0.0,,,,,
JVASP-85840,CuF2,-1.62135,0.0,0.0,0.0158,,,,,
JVASP-68071,KBeOs2,0.49496,0.0,na,0.4971,,,,,
JVASP-69639,Mg4BeMo,0.7986,0.0,na,0.8722,,,,,
JVASP-72786,Be2SiTc,0.33829,0.0,na,0.5983,,,,,
JVASP-15647,ErSnPd2,-0.88351,0.0,0.0,0.0,,,,,
JVASP-75524,MnAsIr2,0.30996,0.0,na,0.5496,,,,,
JVASP-75707,Fe2AsSe,0.60794,0.0,0.0,0.8705,,,,,
JVASP-76275,Y3H2,-0.44269,0.0,0.0,0.0234,,,,,
JVASP-68758,Be2Co2Se,0.33075,0.0,na,0.8316,,,,,
JVASP-68893,CaBe2Cu,0.2031,0.0,na,0.3645,,,,,
JVASP-89953,TeBr6N2,1.08235,0.0,na,1.1479,,,,,
JVASP-68210,BeNiRu2,-0.0096,0.0,0.0,0.2242,,,,,
JVASP-86959,ZrTlCuSe3,-0.90752,0.37,na,0.0,,,,,
JVASP-67770,BeSiW2,-0.20763,0.0,na,0.181,,,,,
JVASP-67518,Be2NbSe,0.02471,0.0,na,0.5906,,,,,
JVASP-90110,Nd2CuGe6,-0.45178,0.0,na,0.0492,,,,,
JVASP-75559,InNiAs,0.40053,0.0,na,0.6175,,,,,
JVASP-69537,Be2SiRu,-0.24068,0.0,na,0.0755,,,,,
JVASP-68631,Be2NiCl,0.00805,0.0,na,0.8134,,,,,
JVASP-75592,Zn2BAs,0.89378,0.0,na,1.0006,,,,,
JVASP-86426,Ta4AlC3,-0.5376,0.0,na,0.0735,,,,,
JVASP-14562,LuFe2,-0.22944,0.0,na,0.0,,,,,
JVASP-67568,LiTiBe2,0.12812,0.0,na,0.3011,,,,,
JVASP-67805,BePt4W,0.39085,0.0,na,0.8064,,,,,
JVASP-73952,BeRe2Pb,0.33207,0.0,na,0.4665,,,,,
JVASP-88328,H4CSN2O2,-0.47868,3.124,na,0.1294,,,,,
JVASP-68012,BeCoGe2,0.31207,0.0,na,0.4861,,,,,
JVASP-85916,Ho2Ni2Pb,-0.57441,0.0,na,0.0,,,,,
JVASP-67688,BeSi2Ru,-0.06856,0.0,na,0.2434,,,,,
JVASP-86270,Ce3Sb3Au2,-0.8848,0.0,na,0.0,,,,,
JVASP-91887,Mg7Ni,0.01419,0.0,na,0.1045,,,,,
JVASP-68406,BePb2Br,0.38544,0.0,na,0.7863,,,,,
JVASP-86317,CeGa6,-0.31452,0.0,na,0.0,,,,,
JVASP-87896,Ba3NaSi23,-0.09655,0.0,na,0.0424,,,,,
JVASP-69723,MnBe2In,0.33543,0.0,0.097,0.5131,,,,,
JVASP-74115,BePtW2,-0.31014,0.0,na,0.2245,,,,,
JVASP-74038,KBePt2,-0.10907,0.0,na,0.1501,,,,,
JVASP-53775,Mg2CoH5,-0.28488,0.235,na,0.0,,,,,
JVASP-75777,AsRu2Au,0.55214,0.0,na,0.6827,,,,,
JVASP-62732,V5SiB2,-0.63925,0.0,na,0.0,,,,,
JVASP-75664,MnFeAs,-0.11895,0.0,na,0.0239,,,,,
JVASP-75525,Zn2AsIr,0.14754,0.0,na,0.4243,,,,,
JVASP-75817,NbAsAu,0.54652,0.0,na,0.977,,,,,
JVASP-75891,InB2As,1.70684,0.0,na,1.8769,,,,,
JVASP-75622,ReAsW2,0.23592,0.0,0.0,0.5261,,,,,
JVASP-66856,Be2PbCl,0.668,0.0,na,1.2277,,,,,
JVASP-67167,TiBe2Tc,0.00724,0.0,na,0.3541,,,,,
JVASP-86548,Li2TeO3,-1.78816,3.238,na,0.0,,,,,
JVASP-47538,Li4MnP2O8,-2.3456,1.98,na,0.0584,,,,,
JVASP-67428,CaBeIn,0.08568,0.0,0.0,0.4827,,,,,
JVASP-68697,TiBe2Bi,0.36421,0.0,na,0.5545,,,,,
JVASP-69802,BeZnTe,0.12897,0.0,na,0.4415,,,,,
JVASP-75593,AsP2Pd,0.40212,0.0,na,0.7224,,,,,
JVASP-75561,YAsRh,-0.91968,0.0,na,0.1938,,,,,
JVASP-69538,SrBe2Mo,0.34919,0.0,na,0.5701,,,,,
JVASP-68458,MnBePb2,0.42415,0.0,0.0,0.5123,,,,,
JVASP-67644,Be2BiIr,0.48264,0.0,0.0,0.7992,,,,,
JVASP-48249,Li2Ti3V3O12,-2.72729,0.0,na,0.1313,,,,,
JVASP-68273,Mn2BeGa,0.07862,0.0,na,0.2178,,,,,
JVASP-75743,B2SbAs,1.77349,0.0,na,1.8804,,,,,
JVASP-75845,NbAsRu2,0.13998,0.012,na,0.4629,,,,,
JVASP-67604,BeNbRu2,-0.07824,0.0,0.0,0.1763,,,,,
JVASP-85984,Sr2CuClO2,-2.35642,2.574,na,0.0002,,,,,
JVASP-75665,Re2AsPd,0.5469,0.0,na,0.6988,,,,,
JVASP-75484,MoAsW2,0.1405,0.0,na,0.5382,,,,,
JVASP-48118,FeOF,-1.76718,0.0,na,0.0737,,,,,
JVASP-69867,BeCoMo,0.22679,0.0,na,0.4375,,,,,
JVASP-92243,LiNiS2,-0.73155,0.0,na,0.1063,,,,,
JVASP-68820,Hf2BeBi,0.1759,0.0,0.0,0.3691,,,,,
JVASP-67727,LiBeBr4,0.4598,0.0,0.0,1.5607,,,,,
JVASP-67314,YBeZn,0.01511,0.0,na,0.2896,,,,,
JVASP-68583,BeCdSb2,0.52638,0.0,na,0.5453,,,,,
JVASP-75708,ZnAsAu,-0.00917,0.0,na,0.1428,,,,,
JVASP-75893,CaB2As,1.19369,0.0,na,1.8692,,,,,
JVASP-75623,GaAsRh2,0.00706,0.0,na,0.5298,,,,,
JVASP-75819,AsPd2W,-0.02537,0.0,na,0.3495,,,,,
JVASP-67945,Na2LiBe,0.41242,0.0,na,0.4264,,,,,
JVASP-67844,BeCo4Cu,0.30987,0.0,0.0,0.421,,,,,
JVASP-48488,NaNiPO4,-1.8809,0.517,na,0.0106,,,,,
JVASP-49746,Zn2As2O7,-1.36703,2.025,3.661,0.0,,,,,
JVASP-74039,LiBePd2,-0.33274,0.0,na,0.2279,,,,,
JVASP-48913,MnOF,-2.03389,0.315,na,0.0,,,,,
JVASP-28890,TeW2Se2S,-0.43467,0.23,na,0.2084,,,,,
JVASP-92924,Mg6WC,0.69344,0.0,na,0.7664,,,,,
JVASP-3348,BaAgTeF,-2.06644,1.641,2.717,0.0,,,,,
JVASP-93102,Mg6NbSi,0.11142,0.0,na,0.2627,,,,,
JVASP-87029,KMo3S3,-0.88719,0.0,na,0.0,,,,,
JVASP-68522,KBeTe2,0.22342,0.0,0.0,0.8895,,,,,
JVASP-68699,BeCdBi,0.4176,0.0,na,0.4209,,,,,
JVASP-75847,SiAsAu,0.29306,0.0,na,0.3311,,,,,
JVASP-68894,BeTe2Pd,-0.04046,0.0,na,0.3552,,,,,
JVASP-67892,BeGaOs2,0.22948,0.0,na,0.3331,,,,,
JVASP-91598,SiTc,-0.3908,0.0,na,0.0002,,,,,
JVASP-50093,TiNbO4,-2.89049,0.0,2.792,0.0517,,,,,
JVASP-85430,BaLuFeCuO5,-2.32907,0.0,na,0.0452,,,,,
JVASP-75709,Re2AsPt,0.60219,0.0,na,0.8963,,,,,
JVASP-3594,SrIF,-3.02678,4.534,5.444,0.0,,,,,
JVASP-75666,ReAsIr2,0.41859,0.0,na,0.6104,,,,,
JVASP-2139,P2Ru,-0.59603,0.514,na,0.0,,,,,
JVASP-94065,SrMg6V,0.27742,0.0,na,0.3377,,,,,
JVASP-86493,HoSi2Ni,-0.78603,0.0,na,0.0,,,,,
JVASP-67845,SrBeRe,0.44857,0.0,na,0.6278,,,,,
JVASP-67569,BeCo2Br,0.40361,0.0,na,0.8878,,,,,
JVASP-75894,GeAsRh2,0.14854,0.0,na,0.6109,,,,,
JVASP-68633,Be2ZnGa,0.31709,0.0,na,0.3171,,,,,
JVASP-68274,Sc2BeRu,-0.29614,0.0,na,0.1221,,,,,
JVASP-67689,MgBeTc2,0.02106,0.0,na,0.1032,,,,,
JVASP-48718,Li2FeO3,-1.86097,0.0,na,0.0954,,,,,
JVASP-67771,BeCrGe,0.41462,0.0,na,0.5402,,,,,
JVASP-67315,Be2ReOs,-0.14033,0.0,na,0.1284,,,,,
JVASP-76280,Li12Mg3Si4,-0.26355,0.0,na,0.0,,,,,
JVASP-90759,Li3Mg,-0.0441,0.0,na,0.033,,,,,
JVASP-67171,BeNbRe,0.14448,0.0,na,0.4469,,,,,
JVASP-91837,CeAl4Ge2Au,-0.47287,0.0,na,0.0,,,,,
JVASP-15058,ScPd,-0.93785,0.0,0.0,0.0,,,,,
JVASP-91515,CeTlSe2,-1.14541,0.0,na,0.1424,,,,,
JVASP-90164,SiN2F6,-0.72419,0.0,na,1.0423,,,,,
JVASP-88694,Ni21Sn2P6,-0.37338,0.0,na,0.0,,,,,
JVASP-68338,Sr2BeGe,0.14644,0.0,na,0.6363,,,,,
JVASP-18440,BaLi2Si,-0.33194,0.0,na,0.0,,,,,
JVASP-3780,LuSBr,-2.10731,2.856,3.906,0.0,,,,,
JVASP-18661,CeIr5,-0.37583,0.0,na,0.0844,,,,,
JVASP-68460,BePIr,-0.05809,0.0,na,0.5031,,,,,
JVASP-67520,BeNiMo,-0.18464,0.0,na,0.127,,,,,
JVASP-75624,Zn2TcAs,0.35248,0.0,na,0.4788,,,,,
JVASP-68824,MnBe2Bi,0.47019,0.0,na,0.6465,,,,,
JVASP-75848,ReAsPt2,0.27405,0.0,0.0,0.5304,,,,,
JVASP-67946,SrBeTl,-0.02067,0.0,na,0.3178,,,,,
JVASP-69641,TaBe2Ni,-0.07723,0.0,0.283,0.343,,,,,
JVASP-72790,Be2HgRu,0.30242,0.0,0.0,0.5722,,,,,
JVASP-91650,Ta2AlC,-0.05874,0.0,na,0.4784,,,,,
JVASP-68585,MgBe2Tc,0.04849,0.0,0.0,0.2128,,,,,
JVASP-68158,BeZn2Ge,0.32626,0.0,na,0.3263,,,,,
JVASP-90577,MgSb3,-0.00989,0.0,na,0.1697,,,,,
JVASP-92885,HfMg6Cr,0.26501,0.0,na,0.286,,,,,
JVASP-18838,InPd3,-0.41255,0.0,0.0,0.0266,,,,,
JVASP-86774,TlV5Se8,-0.71022,0.0,na,0.0043,,,,,
JVASP-17255,Cu2GeSe4,-0.16843,0.0,na,0.054,,,,,
JVASP-86893,CaAlSi,-0.46717,0.0,na,0.0026,,,,,
JVASP-67605,Be2TlCl,0.11801,0.0,na,0.6777,,,,,
JVASP-69543,Be2IrPt,-0.70132,0.0,na,0.0022,,,,,
JVASP-69469,Be2TcIr,-0.13747,0.0,0.0,0.2473,,,,,
JVASP-75526,CaNi2As,-0.09622,0.0,na,0.4976,,,,,
JVASP-68759,Be2CuIr,-0.39486,0.0,0.0,0.0,,,,,
JVASP-67806,BeSbCl,0.08806,0.0,0.0,0.8343,,,,,
JVASP-42630,LiMnO2,-1.92908,0.0,na,0.11,,,,,
JVASP-91934,PrAgSb2,-0.69199,0.0,na,0.0,,,,,
JVASP-88093,BaCaC2O6,-2.39369,4.146,na,0.0172,,,,,
JVASP-75667,MgCu2As,0.01612,0.0,na,0.3126,,,,,
JVASP-73953,BeV2Hg,0.28039,0.0,na,0.3563,,,,,
JVASP-68701,Be2CdRu,0.13569,0.0,na,0.408,,,,,
JVASP-91736,InSe2N,1.07429,0.0,0.0,1.3781,,,,,
JVASP-89895,Nd2Fe2Se2O3,-2.0222,0.0,na,0.1117,,,,,
JVASP-92191,HfMg3O4,-2.5488,0.0,na,0.4463,,,,,
JVASP-74117,KBeNi2,0.31819,0.0,na,0.5541,,,,,
JVASP-93168,LiMg6B,0.28618,0.0,na,0.3536,,,,,
JVASP-90621,UFeC2,-0.23239,0.0,0.0,0.0,,,,,