jid,formula,formation_energy_per_atom,optb88vdw_bandgap,mbj_bandgap,ehull,spacegroup_number,natoms,volume,bulk_modulus_kv,shear_modulus_gv
JVASP-66193,Ba4HfIr,1.20473,0.0,na,1.5398,,,,,
JVASP-69180,BaCoNi2,0.76834,0.0,na,0.7793,,,,,
JVASP-65650,BaSr2Mg,-0.02747,0.0,na,0.0581,,,,,
JVASP-67105,Be2ZnIn,0.39552,0.0,na,0.3968,,,,,
JVASP-69266,BaTi2Bi,0.41965,0.0,0.0,0.8879,,,,,
JVASP-66780,BeBiMo,0.48519,0.0,na,0.6325,,,,,
JVASP-85688,CeNiSnH,-0.56743,0.0,na,0.0217,,,,,
JVASP-66399,Ba4GaRh,0.69652,0.0,na,0.9722,,,,,
JVASP-52791,Li3Mn2O4,-1.69821,0.0,na,0.3036,,,,,
JVASP-69301,BaSn2Pb,-0.36556,0.0,na,0.1248,,,,,
JVASP-69228,BaHgPt2,-0.14666,0.0,na,0.4748,,,,,
JVASP-66866,BeVCo,0.04992,0.0,na,0.3275,,,,,
JVASP-43204,Li2MnNb3O8,-2.37759,0.0,0.0,0.1169,,,,,
JVASP-66563,Ba4CrNi,1.08741,0.0,0.0,1.097,,,,,
JVASP-69064,BaReCl2,-0.03713,0.0,na,1.9848,,,,,
JVASP-66479,BaTiHg,1.00929,0.0,na,1.3528,,,,,
JVASP-65766,BaLaMo2,0.71683,0.0,na,0.7168,,,,,
JVASP-18786,ZrPt3,-1.05687,0.0,na,0.0171,,,,,
JVASP-68988,K2BaZn,-0.04543,0.0,na,0.1097,,,,,
JVASP-68944,Ba2NbBr,0.13261,0.0,na,1.0157,,,,,
JVASP-66666,Ba4PW,1.10695,0.0,0.0,1.6603,,,,,
JVASP-48001,Li2MnF4,-2.72129,2.044,na,0.1312,,,,,
JVASP-66237,BaTcCl,0.64479,0.0,0.0,1.9928,,,,,
JVASP-65334,BaMoIr2,0.47176,0.0,na,0.7339,,,,,
JVASP-4843,BN,-1.38447,4.366,5.885,0.0044,,,,,
JVASP-86638,PrOs2,-0.14153,0.0,na,0.0,,,,,
JVASP-28372,GaP,0.02467,1.155,1.651,0.4557,,,,,
JVASP-86479,ThCu2Ge2,-0.46912,0.0,na,0.0,,,,,
JVASP-90281,NiAsPd,-0.26294,0.0,na,0.0002,,,,,
JVASP-90075,ZrSnRh,-0.75256,0.0,na,0.0115,,,,,
JVASP-65727,BaCd2Bi,-0.30464,0.0,na,0.1684,,,,,
JVASP-61096,CoAs2O6,-1.1514,0.21,na,0.0,,,,,
JVASP-91973,CrF3,-2.75302,1.074,na,0.0,,,,,
JVASP-91543,SmInCo2,-0.24657,0.0,na,0.0193,,,,,
JVASP-66635,BaSbBr,-0.79504,0.0,0.0,0.7754,,,,,
JVASP-86124,LuNi4Sn,-0.42539,0.0,na,0.0,,,,,
JVASP-65582,BaLiRh2,0.19128,0.0,na,0.3594,,,,,
JVASP-86330,ZrMn2,-0.1944,0.0,na,0.0112,,,,,
JVASP-90564,Y3Mg,-0.00187,0.0,0.0,0.0505,,,,,
JVASP-88061,PrZr2F11,-3.99811,5.991,na,0.005,,,,,
JVASP-53571,Al2CrS4,-1.0153,0.0,na,0.0465,,,,,
JVASP-66363,BaTeBr,-1.34739,0.0,0.0,0.4659,,,,,
JVASP-66194,Ba4ZnIr,0.81206,0.0,na,0.9143,,,,,
JVASP-85498,LaH3O3,-2.04006,3.781,3.764,0.0001,,,,,
JVASP-63468,NdAl2Au2,-0.79466,0.0,na,0.0,,,,,
JVASP-65651,BaZr2Co,0.70821,0.0,na,0.9483,,,,,
JVASP-66564,BaTcBi,1.32207,0.0,0.0,1.9462,,,,,
JVASP-22675,CsSnI3,-0.98516,0.916,na,0.0,,,,,
JVASP-69105,BaNa2P,-0.13684,0.0,0.0,0.5406,,,,,
JVASP-67174,BeCoOs,0.11036,0.0,na,0.3211,,,,,
JVASP-60817,P2PbAu2,-0.13791,0.0,na,0.0,,,,,
JVASP-66400,Ba4ReSb,0.93476,0.0,na,1.4152,,,,,
JVASP-66958,MgTaBe2,0.16417,0.0,na,0.3576,,,,,
JVASP-66442,BaBiPb,-0.17079,0.0,0.216,0.4861,,,,,
JVASP-69269,Ba2LaTi,0.68095,0.0,na,0.681,,,,,
JVASP-68945,Ba2TlTe,-0.85615,0.0,na,0.3448,,,,,
JVASP-66481,Ba4BiMo,0.77687,0.0,na,1.2113,,,,,
JVASP-66694,Be2FePt,-0.27093,0.0,0.0,0.1023,,,,,
JVASP-69229,BaBiP4,-0.11047,0.0,na,0.4011,,,,,
JVASP-63770,UAu2,-0.33483,0.0,0.0,0.0011,,,,,
JVASP-3126,TaCu3S4,-0.65556,2.057,2.126,0.0,,,,,
JVASP-42840,V3O5F,-2.63797,0.0,na,0.0085,,,,,
JVASP-63879,CaB2H8,-0.38989,4.801,6.572,0.0005,,,,,
JVASP-60706,CuHgSeBr,-0.19067,0.648,1.148,0.01,,,,,
JVASP-66238,Ba4InMo,1.06763,0.0,na,1.2711,,,,,
JVASP-87971,K4ZnO3,-1.45279,2.022,na,0.0,,,,,
JVASP-67333,NaBeMo,0.65504,0.0,na,0.8064,,,,,
JVASP-65694,Ba2VTe,-0.16553,0.0,0.0,0.7882,,,,,
JVASP-14918,Li2PrP2,-0.94472,0.0,na,0.1352,,,,,
JVASP-66518,BaNbCd,1.41207,0.0,0.0,1.6999,,,,,
JVASP-62393,Ba4AgAuO6,-2.08155,1.995,na,0.0,,,,,
JVASP-68990,BaYGe2,-0.30181,0.0,na,0.4986,,,,,
JVASP-66667,Ba4SnPt,0.28294,0.0,0.0,0.9137,,,,,
JVASP-69304,BaLaSi2,-0.25449,0.0,na,0.3791,,,,,
JVASP-90791,HfTiF6,-3.54662,0.0,na,0.0,,,,,
JVASP-91817,NpH3,-0.31918,0.0,0.0,0.0169,,,,,
JVASP-69182,BaSr2Tl,-0.2453,0.0,na,0.0207,,,,,
JVASP-88246,PH3O4,-1.52235,6.132,na,0.0079,,,,,
JVASP-18465,Ag3BO3,-0.96856,0.0,na,0.0531,,,,,
JVASP-66636,Ba4ReSe,0.88853,0.0,na,1.6192,,,,,
JVASP-48421,V6O11F,-2.60915,0.0,0.0,0.0057,,,,,
JVASP-90838,Cu4S3N,0.49842,0.0,na,0.6977,,,,,
JVASP-89420,K3U3Si2O13,-3.09901,0.621,na,0.0,,,,,
JVASP-4615,CuAgS,-0.13545,0.457,na,0.04,,,,,
JVASP-66195,Ba4ZrPt,0.84133,0.0,0.0,1.2261,,,,,
JVASP-87007,Ce2Ga10Ni,-0.41281,0.0,na,0.0,,,,,
JVASP-65615,KBaCd2,-0.22257,0.0,na,0.0813,,,,,
JVASP-88760,CuS,0.00274,0.0,na,0.2659,,,,,
JVASP-66401,BaSnSb,-0.15524,0.0,na,0.5655,,,,,
JVASP-66482,BaTiZn,1.1747,0.0,0.0,1.3758,,,,,
JVASP-88438,La3GaBr3,-1.45898,0.0,na,0.0,,,,,
JVASP-69270,Ba2TaBr,0.30858,0.0,na,1.1917,,,,,
JVASP-66364,Ba4ZnRh,0.73735,0.0,na,0.8782,,,,,
JVASP-66605,BaCdBr,-0.85502,0.0,2.745,0.5236,,,,,
JVASP-63234,YB2C2,-0.38403,0.0,na,0.1075,,,,,
JVASP-63615,MnNiAs,-0.16685,0.0,na,0.009,,,,,
JVASP-66520,BaTlCd,0.01725,0.0,na,0.4329,,,,,
JVASP-65728,BaGe4Bi,-0.07223,0.0,na,0.2636,,,,,
JVASP-43973,Mn6O5F7,-2.12286,0.0,na,0.0,,,,,
JVASP-85898,ThSi2Os2,-0.73843,0.0,na,0.0,,,,,
JVASP-62975,BN,-1.38442,4.46,6.114,0.0044,,,,,
JVASP-67029,ScBeFe,0.21,0.0,0.0,0.4604,,,,,
JVASP-65652,BaNa2Tl,-0.15877,0.0,na,0.0945,,,,,
JVASP-66239,Ba4FeBi,0.75832,0.0,na,1.1933,,,,,
JVASP-66443,Ba4TlRu,0.85851,0.0,0.0,1.0233,,,,,
JVASP-69106,Ba2LaHf,0.66551,0.0,na,0.6655,,,,,
JVASP-69349,BaCuBr2,-1.05981,0.0,0.246,0.7064,,,,,
JVASP-87318,Al2Si2H4O9,-2.36266,5.132,na,0.0078,,,,,
JVASP-67526,YBe2Nb,0.06869,0.0,na,0.2573,,,,,
JVASP-66668,Ba4CdFe,0.99745,0.0,na,1.142,,,,,
JVASP-69305,Ba2NaBe,0.32916,0.0,0.0,0.3559,,,,,
JVASP-90148,MnSb2O6,-1.4905,0.028,na,0.1119,,,,,
JVASP-86879,Ho5Co2Bi,-0.40836,0.0,na,0.0227,,,,,
JVASP-43558,Mn3O4F2,-1.90351,0.0,na,0.0,,,,,
JVASP-15223,Dy2Al3Si2,-0.54167,0.0,0.0,0.0,,,,,
JVASP-61888,YNiB4,-0.60372,0.0,na,0.0,,,,,
JVASP-69144,BaCr2Cd,0.91657,0.0,0.0,1.1324,,,,,
JVASP-1420,Na2Te,-1.00223,2.137,3.786,0.0,,,,,
JVASP-86809,DyInNi,-0.54495,0.0,na,0.0,,,,,
JVASP-48955,MnF4,-2.23303,0.68,na,0.088,,,,,
JVASP-63469,GaAsO4,-1.52689,3.198,5.197,0.0,,,,,
JVASP-60847,YNi4Au,-0.42945,0.0,na,0.0,,,,,
JVASP-61109,Na4BeAlSi4ClO12,-2.76184,4.766,7.651,0.0,,,,,
JVASP-66696,TaBeMo,0.36518,0.0,na,0.6086,,,,,
JVASP-66637,Ba4MnPt,1.15476,0.0,na,1.4428,,,,,
JVASP-66483,BaTlHg,-0.02262,0.0,na,0.3836,,,,,
JVASP-68991,BaTlPb2,-0.30033,0.0,na,0.105,,,,,
JVASP-66322,Ba4InIr,0.68932,0.0,0.0,0.8928,,,,,
JVASP-47059,ZnCoO3,-1.22766,0.0,0.0,0.0628,,,,,
JVASP-67577,ScBe2Sb,-0.02549,0.0,na,0.4743,,,,,
JVASP-67338,Be2NbZn,0.00198,0.0,na,0.2457,,,,,
JVASP-65767,BaNa2Si,0.18102,0.0,0.0,0.4288,,,,,
JVASP-15813,BaNiS2,-1.33535,0.0,na,0.0212,,,,,
JVASP-90206,DyCdCu,-0.33788,0.0,na,0.0,,,,,
JVASP-42259,LiMn2B2O6,-2.11934,0.0,0.0,0.0884,,,,,
JVASP-66444,BaNaMn,0.95015,0.0,na,0.9859,,,,,
JVASP-69183,BaIn2Te,-0.45638,0.0,na,0.5,,,,,
JVASP-62190,K6Na3AlSb4,-0.54824,0.854,1.745,0.0148,,,,,
JVASP-66521,Ba4TePt,0.06087,0.0,na,0.9848,,,,,
JVASP-48240,LiVP3HO10,-2.10738,0.0,na,0.0883,,,,,
JVASP-66240,Ba4BePt,0.83171,0.0,na,1.1666,,,,,
JVASP-66669,Ba4ReHg,1.18953,0.0,na,1.3613,,,,,
JVASP-66565,BaNaCl,-0.83441,0.635,0.689,0.5335,,,,,
JVASP-66781,TiMnBe2,0.01195,0.0,na,0.2786,,,,,
JVASP-69307,Ba2SrNi,0.38536,0.0,na,0.4088,,,,,
JVASP-66868,LiBeOs,0.13446,0.0,na,0.1594,,,,,
JVASP-67107,HfBe2Co,-0.1345,0.0,na,0.2326,,,,,
JVASP-65729,BaSr2Tl,-0.24547,0.0,na,0.0205,,,,,
JVASP-66026,BaCaTl,0.19213,0.0,0.0,0.5319,,,,,
JVASP-91635,Cu2SiNiS4,-0.21313,0.0,na,0.2859,,,,,
JVASP-42751,LiCo2O2F3,-1.7816,0.0,na,0.1282,,,,,
JVASP-91923,Ce3Mg,0.15087,0.0,na,0.1681,,,,,
JVASP-65616,BaGaPt2,-0.22381,0.0,na,0.5095,,,,,
JVASP-69065,KBaV4,1.05092,0.0,0.0,1.0524,,,,,
JVASP-67178,LiBePd,-0.33837,0.0,na,0.0864,,,,,
JVASP-66323,Ba4ZrMo,1.46834,0.0,na,1.5031,,,,,
JVASP-66638,BaLiTl,0.19293,0.0,0.0,0.5349,,,,,
JVASP-66484,Ba2InNi,-0.05968,0.0,na,0.2456,,,,,
JVASP-65335,BaMn2Hg,0.76245,0.0,0.0,1.0201,,,,,
JVASP-68993,Ba2LiSn,-0.44425,0.0,na,0.077,,,,,
JVASP-22707,CaCd3O4,-1.71067,0.352,2.099,0.0075,,,,,
JVASP-63622,RbNa2AuO2,-1.24152,2.348,3.377,0.0,,,,,
JVASP-67265,TiBeRh,-0.23881,0.0,0.0,0.3804,,,,,
JVASP-91772,RbNa3H4,-0.19354,2.986,5.215,0.1041,,,,,
JVASP-65653,KBaCu2,0.10325,0.0,na,0.1696,,,,,
JVASP-65695,BaMgCl2,-1.61036,0.054,0.435,0.4116,,,,,
JVASP-65583,BaGa2Cl,-0.81906,0.0,0.0,0.4892,,,,,
JVASP-63474,BC7,0.2207,0.0,na,0.2375,,,,,
JVASP-66606,BaGaBr,-0.62246,0.0,0.0,0.8202,,,,,
JVASP-66445,Ba4PtSe,0.11757,0.0,na,1.1363,,,,,
JVASP-66959,CaTaBe,0.41176,0.0,0.0,0.5513,,,,,
JVASP-62981,ThB2Pt2C,-0.66179,0.0,na,0.0441,,,,,
JVASP-49957,Li2RhO3,-1.62416,0.0,0.0,0.0,,,,,
JVASP-66197,BaMoCl,0.67328,0.261,na,2.0213,,,,,
JVASP-66402,BaCdTe,-0.87684,1.548,1.741,0.3981,,,,,
JVASP-87859,Ba3Al2Si3O12,-2.97262,3.495,na,0.232,,,,,
JVASP-66365,BaNaPb,0.03739,0.0,0.0,0.4817,,,,,
JVASP-18548,Ta4O,-0.65662,0.0,na,0.1955,,,,,
JVASP-63775,LiB6H10O2,-0.55636,5.726,na,0.0469,,,,,
JVASP-13977,YbLiGe,-0.55258,0.0,na,0.0419,,,,,
JVASP-90503,Rb2NiF6,-2.36246,1.606,na,0.0,,,,,
JVASP-52575,Ca2CuB2H12O12,-1.60978,0.714,1.087,0.0,,,,,
JVASP-67345,Be2ReIr,-0.31597,0.0,na,0.0192,,,,,
JVASP-48181,Fe4O7F,-1.51418,0.0,0.0,0.016,,,,,
JVASP-66522,Ba4FePd,0.92665,0.0,0.0,1.162,,,,,
JVASP-69350,Ba2TiBr,-0.06471,0.0,0.0,0.8184,,,,,
JVASP-69184,BaHgSe4,-0.44805,0.0,na,0.3073,,,,,
JVASP-67032,BePtSe,-0.0901,0.0,na,0.5301,,,,,
JVASP-66671,Ba4VPt,1.15271,0.0,0.0,1.4408,,,,,
JVASP-61646,K3AlF6,-3.35975,6.792,10.366,0.0,,,,,
JVASP-67529,Be2TePb,0.36701,0.0,na,0.5818,,,,,
JVASP-65732,Ba2ScSb,-0.17836,0.0,na,0.5423,,,,,
JVASP-66639,Ba4ScFe,1.20942,0.0,na,1.2928,,,,,
JVASP-67182,ZrBe2Rh,-0.38586,0.0,na,0.1457,,,,,
JVASP-88947,CaZn2,-0.33999,0.0,na,0.0366,,,,,
JVASP-60852,Nd2Ni5B4,-0.4806,0.0,na,0.0069,,,,,
JVASP-66324,Ba4CoOs,1.57095,0.0,na,1.5729,,,,,
JVASP-67430,BeTcW,0.08106,0.0,0.0,0.3762,,,,,
JVASP-69108,BaSr2Sc,0.20293,0.0,0.0,0.2284,,,,,
JVASP-61909,Na4BeAlSi4ClO12,-2.76184,4.766,7.65,0.0,,,,,
JVASP-66698,BeSiHg,0.68541,0.0,na,0.687,,,,,
JVASP-50342,NaCu3O4,-0.94249,0.0,na,0.0001,,,,,
JVASP-69272,Ba2MgSn,-0.47101,0.0,0.0,0.0551,,,,,
JVASP-62656,LiBH4,-0.3373,6.918,na,0.0336,,,,,
JVASP-48885,Li6CoSi2O8,-2.31856,0.247,na,0.1253,,,,,
JVASP-66198,BaSbCl,-0.87816,0.0,na,0.8628,,,,,
JVASP-42577,Li2FeO3,-1.89579,0.053,0.0,0.0606,,,,,
JVASP-4295,SN,0.51371,0.0,na,0.5302,,,,,
JVASP-92175,CrCo3,-0.02401,0.0,na,0.0,,,,,
JVASP-66782,LiBe2Cr,0.21733,0.0,na,0.3746,,,,,
JVASP-66368,BaYTl,0.45026,0.0,na,0.7824,,,,,
JVASP-85411,EuMoClO4,-2.68381,2.617,na,0.2449,,,,,
JVASP-16049,ThSi2Tc2,-0.60603,0.0,na,0.0,,,,,
JVASP-66607,Ba4RuPb,0.77706,0.0,na,1.0818,,,,,
JVASP-90076,NbFeB,-0.53841,0.0,na,0.0,,,,,
JVASP-86410,Ba2SnO4,-2.55837,2.647,3.768,0.0,,,,,
JVASP-90411,CdCu2GeTe4,-0.15561,0.0,na,0.0032,,,,,
JVASP-91586,CaFeAsF,-1.94093,0.0,0.0,0.0004,,,,,
JVASP-67616,BeCdTe2,-0.06174,0.0,na,0.3543,,,,,
JVASP-91682,Mg3Pd,-0.43511,0.0,na,0.0,,,,,
JVASP-15644,CeCo2P2,-0.98751,0.0,na,0.0001,,,,,
JVASP-86761,Ca3SiBr2,-1.15984,0.0,0.0,0.2049,,,,,
JVASP-67267,LaBe2Cu,0.30122,0.0,na,0.4574,,,,,
JVASP-85748,YbMoClO4,-2.35368,2.001,na,0.0153,,,,,
JVASP-86704,Cd2RuC6N6,0.15304,2.575,na,0.1618,,,,,
JVASP-66404,Ba4GaRu,0.94356,0.0,0.0,1.0812,,,,,
JVASP-67112,MnBe2Si,0.00872,0.0,na,0.2153,,,,,
JVASP-66525,Ba4TeOs,0.66972,0.0,na,1.3056,,,,,
JVASP-65769,Ba2SbBr,-1.56827,0.979,1.353,0.0036,,,,,
JVASP-66241,BaCaIn,0.18498,0.0,0.0,0.6107,,,,,
JVASP-66027,BaGeBr,-0.59648,0.424,na,0.8947,,,,,
JVASP-48694,Li2Fe2OF4,-2.21804,0.0,na,0.1535,,,,,
JVASP-69145,BaBrCl4,-0.88933,0.0,0.0,0.4713,,,,,
JVASP-88671,SbS24I3,-0.05935,2.222,na,0.0051,,,,,
JVASP-65618,Ba2VBr,-0.1102,0.0,na,0.7729,,,,,
JVASP-92228,FeHO2,-1.24833,0.0,na,0.0311,,,,,
JVASP-67578,NaCaBe,0.40829,0.0,0.0,0.4624,,,,,
JVASP-91724,CeAl4Si2Rh,-0.62346,0.0,na,0.0,,,,,
JVASP-89132,Na3NbO4,-2.37448,3.807,na,0.0,,,,,
JVASP-66869,ScBeOs,0.0228,0.0,na,0.3757,,,,,
JVASP-66369,Ba4NbMo,1.68128,0.0,na,1.7209,,,,,
JVASP-63306,BeB2C2,-0.18467,0.473,1.311,0.0,,,,,
JVASP-66485,BaTlSb,-0.40276,0.713,0.883,0.2979,,,,,
JVASP-66672,Ba4InRh,0.60373,0.0,0.0,0.8459,,,,,
JVASP-63127,CrB4,-0.29257,0.0,0.0,0.0,,,,,
JVASP-66960,YBe2Bi,0.32764,0.0,na,0.8148,,,,,
JVASP-66567,BaZnTe,-0.82474,1.623,1.814,0.4469,,,,,
JVASP-65733,BaCaMg2,-0.06692,0.0,na,0.0669,,,,,
JVASP-65654,BaTlSe2,-1.07506,0.0,na,0.1775,,,,,
JVASP-67184,Be2SbSe,0.02291,0.0,na,0.4881,,,,,
JVASP-67346,Be2FeSe,0.19727,0.0,na,0.7637,,,,,
JVASP-61119,NdSi2Au2,-0.57502,0.0,0.0,0.0003,,,,,
JVASP-66608,BaBeBi,0.49024,0.0,0.0,1.1144,,,,,
JVASP-90608,BC7,0.2207,0.0,na,0.2375,,,,,
JVASP-69066,BaVTe2,-0.58257,0.0,0.0,0.5267,,,,,
JVASP-67697,Y2BeSe,-0.83684,0.0,na,0.097,,,,,
JVASP-62827,MgB2H8,-0.22931,5.929,8.352,0.0,,,,,
JVASP-69308,BaSrNi2,0.18206,0.091,na,0.2004,,,,,
JVASP-85615,Pu2Ni2Sn,-0.11524,0.0,na,0.2831,,,,,
JVASP-67779,HfBeRh2,-0.55549,0.0,na,0.2177,,,,,
JVASP-63782,HoB2C2,-0.36862,0.0,na,0.1536,,,,,
JVASP-90282,PrCdGa,-0.5331,0.0,na,0.0058,,,,,
JVASP-15677,DyNi2B2C,-0.56106,0.0,na,0.0,,,,,
JVASP-62191,CuAs4S3Cl,-0.23709,1.422,2.033,0.0041,,,,,
JVASP-62982,AuF3,-1.04554,1.504,na,0.0002,,,,,
JVASP-86937,Ce2Fe17,0.02195,0.0,na,0.0615,,,,,
JVASP-66699,LiBe2Mo,0.17952,0.0,na,0.4007,,,,,
JVASP-60861,V3As2,-0.43765,0.0,na,0.009,,,,,
JVASP-63485,Ag3AsS4,-0.09303,0.287,1.542,0.0259,,,,,
JVASP-66242,Ba4BiOs,0.80506,0.0,na,1.2395,,,,,
JVASP-5824,Ta3SBr7,-0.97968,0.79,1.167,0.0,,,,,
JVASP-91874,Mg7Al,0.00163,0.0,na,0.0164,,,,,
JVASP-1765,LiMgAs,-0.82603,1.521,na,0.0,,,,,
JVASP-86249,Nd3MnBi5,-0.5453,0.0,na,0.1213,,,,,
JVASP-66029,Ba4GeW,1.11257,0.0,na,1.4954,,,,,
JVASP-66486,Ba4NiRh,0.97372,0.0,na,1.0123,,,,,
JVASP-91974,NbFeF6,-2.65487,0.0,na,0.0202,,,,,
JVASP-69353,Ba2MgSb,-0.58728,0.0,0.172,0.1695,,,,,
JVASP-66786,BeNiHg,0.16995,0.0,0.0,0.4816,,,,,
JVASP-63625,CaAlAu,-0.78887,0.0,na,0.0,,,,,
JVASP-89933,TiCrAs,-0.55124,0.0,na,0.0738,,,,,
JVASP-91544,YbPd,-0.94006,0.0,na,0.0295,,,,,
JVASP-3414,InS,-0.58402,1.037,1.769,0.0,,,,,
JVASP-65337,BaOsPd2,0.33311,0.0,na,0.8201,,,,,
JVASP-65696,BaYSb2,-0.75354,0.0,0.0,0.3905,,,,,
JVASP-65655,BaSr2Mg,-0.02737,0.0,na,0.0582,,,,,
JVASP-66446,Ba4ScW,1.34533,0.0,0.0,1.4381,,,,,
JVASP-67654,BeCrP2,0.00266,0.0,na,0.357,,,,,
JVASP-69146,BaGaSb2,-0.43485,0.0,na,0.1802,,,,,
JVASP-69186,BaNa2P,-0.13705,0.0,0.0,0.5404,,,,,
JVASP-69309,BaNiCl2,-0.97963,0.0,na,1.0423,,,,,
JVASP-63308,Zr2BIr6,-0.84117,0.0,na,0.0001,,,,,
JVASP-12119,CrAgP2S6,-0.382,0.812,na,0.0,,,,,
JVASP-43656,CoPO4,-1.68242,0.0,na,0.0118,,,,,
JVASP-66031,BaLiCr,1.07403,0.0,na,1.0941,,,,,
JVASP-65734,BaNbBr2,-0.49282,0.0,na,1.2734,,,,,
JVASP-67349,Be2NbBi,0.54457,0.0,0.0,0.7332,,,,,
JVASP-67185,Be2RuCl,0.03639,0.0,na,0.7984,,,,,
JVASP-61912,Zr6Al16Rh7,-0.8314,0.0,na,0.0,,,,,
JVASP-66243,Ba4SnP,0.21474,0.0,na,1.018,,,,,
JVASP-66405,BaHgSb,-0.3028,0.0,0.0,0.3979,,,,,
JVASP-52219,U3O5,-3.23352,0.0,0.0,0.1215,,,,,
JVASP-48423,Li3Co5OF11,-2.07152,0.0,na,0.0662,,,,,
JVASP-69067,BaLaTi4,0.5357,0.0,na,0.5357,,,,,
JVASP-67114,BeCuSn,0.40425,0.0,na,0.4869,,,,,
JVASP-67432,TiBe2Os,-0.12241,0.0,na,0.3166,,,,,
JVASP-63134,Li6CuB4O10,-2.30782,0.883,na,0.0495,,,,,
JVASP-86125,SmSi2Rh3,-0.95322,0.0,na,0.0,,,,,
JVASP-52793,MnPO4,-2.04089,0.181,na,0.0443,,,,,
JVASP-69354,BaCo2Br,0.43819,0.0,na,1.3271,,,,,
JVASP-61654,ScB2Ir3,-0.58432,0.0,na,0.0268,,,,,
JVASP-69148,Ba2LiNb,0.72002,0.0,0.0,0.735,,,,,
JVASP-66640,BaTcBr,0.73379,0.0,0.0,1.9113,,,,,
JVASP-61120,Al2HgSe4,-0.64756,0.448,1.362,0.0498,,,,,
JVASP-66199,Ba4OsBr,0.73272,0.0,0.0,1.3215,,,,,
JVASP-67034,MnBe2Cu,0.04729,0.0,na,0.2236,,,,,
JVASP-66961,Be2RhSe,-0.11255,0.0,na,0.6522,,,,,
JVASP-66870,MgBe2Cu,0.08299,0.0,na,0.2257,,,,,
JVASP-66706,MgBeIr,-0.07853,0.0,na,0.3323,,,,,
JVASP-66371,BaMgCl,-0.6864,0.0,1.926,0.7229,,,,,
JVASP-14206,Rb2CrCl4,-1.22318,0.0,0.0,0.432,,,,,
JVASP-66673,BaLiIn,0.21353,0.0,0.0,0.5817,,,,,
JVASP-48187,LiCoGeO4,-1.5199,0.0,0.0,0.2117,,,,,
JVASP-66447,Ba4TiFe,1.39942,0.0,0.0,1.5574,,,,,
JVASP-66568,BaTlIn,0.00125,0.0,0.0,0.4958,,,,,
JVASP-87008,Rb2UO4,-2.86939,2.027,na,0.0,,,,,
JVASP-62836,Tb4Fe3B6,-0.35308,0.0,na,0.126,,,,,
JVASP-88062,Cu3As2O8,-0.96486,0.0,na,0.0,,,,,
JVASP-63315,YbSbAu,-0.90977,0.0,na,0.0,,,,,
JVASP-90026,VN2Cl6,0.54615,0.0,na,1.2382,,,,,
JVASP-67617,YScBe,0.03135,0.0,0.0,0.1151,,,,,
JVASP-48956,LiV2O3F,-2.53201,0.0,na,0.1542,,,,,
JVASP-1705,RbPrSe2,-1.82775,1.869,2.783,0.0,,,,,
JVASP-66788,Be2CuSe,0.29113,0.0,na,0.8109,,,,,
JVASP-69187,BaGe2Cl,-0.28667,0.0,na,0.9596,,,,,
JVASP-12149,NbFeTe2,-0.30197,0.0,na,0.0383,,,,,
JVASP-66526,Ba4ZrIr,1.13318,0.0,0.0,1.4553,,,,,
JVASP-90885,SrIn3,-0.37426,0.0,na,0.02,,,,,
JVASP-66032,Ba4NiGe,0.68033,0.0,0.0,0.9728,,,,,
JVASP-86304,YCo3H2,-0.2483,0.0,na,0.1459,,,,,
JVASP-86533,LiUAsO6,-2.34747,2.434,na,0.0197,,,,,
JVASP-63490,AsSe,-0.07244,1.081,na,0.0925,,,,,
JVASP-65770,BaBeCl2,-1.07662,0.25,0.585,0.9453,,,,,
JVASP-63626,DyCrB4,-0.67833,0.26,na,0.0,,,,,
JVASP-63797,HfAsOs,-0.51835,0.0,na,0.1528,,,,,
JVASP-87077,EuP2Rh2,-1.05056,0.0,0.0,0.0,,,,,
JVASP-67655,BeHgTe2,0.16216,0.0,na,0.3737,,,,,
JVASP-62194,PrAlCu,-0.4059,0.0,na,0.0,,,,,
JVASP-43211,LiMnO2,-1.98887,0.389,na,0.0502,,,,,
JVASP-66450,BaVBi,0.71639,0.0,na,1.3405,,,,,
JVASP-43560,LiV4O5F7,-2.77969,0.0,na,0.0634,,,,,
JVASP-67433,HfBeCo,-0.29575,0.0,na,0.1013,,,,,
JVASP-68106,CaBeTl2,0.17178,0.0,na,0.4519,,,,,
JVASP-67351,Be2GaNi,-0.14895,0.0,0.0,0.1241,,,,,
JVASP-66201,Ba4PdRh,0.7286,0.0,na,1.002,,,,,
JVASP-43974,Li2CoBO4,-1.93327,0.036,na,0.2019,,,,,
JVASP-67270,TiBe2Se,-0.09228,0.0,0.0,0.58,,,,,
JVASP-66372,BaYBi,0.25823,0.0,na,1.0524,,,,,
JVASP-66641,Ba4GeOs,1.06045,0.0,na,1.3505,,,,,
JVASP-66675,Ba4TcPt,1.098,0.0,na,1.3861,,,,,
JVASP-66033,BaCuBi,0.21929,0.0,na,0.8434,,,,,
JVASP-67815,YBeMo,0.36358,0.0,na,0.5109,,,,,
JVASP-67737,BeInRh2,-0.19114,0.0,0.0,0.2922,,,,,
JVASP-85336,EuMn2Sb2,-0.17906,0.0,0.0,0.2758,,,,,
JVASP-65338,BaSc2Ir,-0.39854,0.0,na,0.2391,,,,,
JVASP-69150,BaZnP2,-0.09901,0.0,0.0,0.6918,,,,,
JVASP-90152,ScGePd,-0.92883,0.0,na,0.0,,,,,
JVASP-67965,BeSn2Cl,0.30657,0.0,na,0.8662,,,,,
JVASP-61913,KAu5,-0.24784,0.0,na,0.0,,,,,
JVASP-67780,TiBeZn2,-0.00357,0.0,na,0.2166,,,,,
JVASP-90566,Mg3Zn,-0.03149,0.0,na,0.023,,,,,
JVASP-3894,TiNCl,-1.66356,0.608,na,0.0,,,,,
JVASP-66569,Ba4GeRu,0.9188,0.0,na,1.2088,,,,,
JVASP-66527,Ba4ZnRe,1.26875,0.0,na,1.371,,,,,
JVASP-42337,VOF3,-2.72253,2.861,3.279,0.018,,,,,
JVASP-66871,Be2NbGa,0.12238,0.0,na,0.4045,,,,,
JVASP-86480,La2MgNi2,-0.37848,0.0,na,0.0,,,,,
JVASP-48003,Mn3O5F,-1.91389,0.0,na,0.0,,,,,
JVASP-42754,Fe4O7F,-1.50651,0.0,na,0.0237,,,,,
JVASP-15531,CaAs2Pd2,-0.72034,0.0,na,0.0,,,,,
JVASP-66406,BaGaTe,-0.52324,0.0,1.681,0.7484,,,,,
JVASP-66708,Be2CoRu,-0.14623,0.0,na,0.1467,,,,,
JVASP-66202,Ba4ZrV,1.37705,0.0,na,1.3771,,,,,
JVASP-67854,BeTeSe,-0.15139,0.0,na,0.4688,,,,,
JVASP-67039,TaBe2Tl,0.48075,0.0,0.0,0.6742,,,,,
JVASP-66451,Ba4SiSb,0.2469,0.0,na,0.9267,,,,,
JVASP-66964,TaBe2Ru,-0.16118,0.0,na,0.1593,,,,,
JVASP-66034,BaTaHg,1.67392,0.0,na,2.0175,,,,,
JVASP-68227,BeHgRh2,0.2724,0.0,na,0.572,,,,,
JVASP-91636,PtN4Cl2O,2.3547,0.0,na,2.5496,,,,,
JVASP-90207,DyAlCu,-0.49381,0.0,na,0.0,,,,,
JVASP-91683,KCo,0.70946,0.0,na,0.7195,,,,,
JVASP-14851,ThAl,-0.34698,0.0,na,0.0204,,,,,
JVASP-63631,Rb2Au3,-0.39176,0.0,na,0.0,,,,,
JVASP-61148,KAu5,-0.24784,0.0,na,0.0,,,,,
JVASP-89494,TmMnO3,-2.90624,0.015,na,0.008,,,,,
JVASP-86880,ErAgGe,-0.65244,0.0,na,0.0,,,,,
JVASP-66642,Ba4ZnPt,0.5321,0.0,na,0.9224,,,,,
JVASP-68030,BeSi2Pd,0.19052,0.0,na,0.473,,,,,
JVASP-28373,AuN2,0.61588,0.0,na,0.6262,,,,,
JVASP-65341,BaMgZr2,0.44002,0.0,na,0.5157,,,,,
JVASP-62986,NdSnAu,-0.85442,0.0,0.0,0.0,,,,,
JVASP-67435,ScBe2Rh,-0.31979,0.0,na,0.266,,,,,
JVASP-67907,SrBeV2,0.93672,0.0,na,1.0126,,,,,
JVASP-65771,BaTlP2,-0.07945,0.0,na,0.609,,,,,
JVASP-67579,ScBeRe,0.09885,0.0,na,0.3737,,,,,
JVASP-63235,B2O3,-2.53251,6.541,9.188,0.0047,,,,,
JVASP-50343,PrSiO4,-2.91065,0.0,na,0.0157,,,,,
JVASP-67530,BeNbSi,0.02794,0.0,na,0.4132,,,,,
JVASP-61664,Dy2Au,-0.67735,0.0,na,0.0,,,,,
JVASP-90668,ZnCu2SnS4,-0.52237,0.115,na,0.0061,,,,,
JVASP-88440,Ta2CoO6,-2.55445,0.128,na,0.0285,,,,,
JVASP-18831,LiIn2Ir,-0.3186,0.0,na,0.0,,,,,
JVASP-42260,FeOF,-1.70092,0.0,0.0,0.14,,,,,
JVASP-42594,Mn3O2F4,-2.18379,0.0,na,0.0,,,,,
JVASP-43805,LiVF4,-3.05337,0.0,0.0,0.0202,,,,,
JVASP-67188,BeGaCo,0.11807,0.0,na,0.4042,,,,,
JVASP-66407,Ba4FeSi,1.12658,0.0,na,1.3265,,,,,
JVASP-15698,CaP2Pd2,-0.85118,0.0,0.0,0.0,,,,,