jid,formula,formation_energy_per_atom,optb88vdw_bandgap,mbj_bandgap,ehull,spacegroup_number,natoms,volume,bulk_modulus_kv,shear_modulus_gv
JVASP-94730,CaMg6V,0.25114,0.0,na,0.3043,,,,,
JVASP-94390,YMg2,0.0358,0.0,na,0.1463,,,,,
JVASP-93445,CaMnSi,-0.35434,0.0,na,0.0663,,,,,
JVASP-1732,SrCeN2,-1.40561,1.251,na,0.0,,,,,
JVASP-74732,Na2BeNb,1.03013,0.0,0.0,1.1305,,,,,
JVASP-74647,BeRePd,0.04047,0.0,na,0.414,,,,,
JVASP-74602,MnBe2Hg,0.40273,0.0,0.0,0.5791,,,,,
JVASP-94113,Mg6TiNi,0.10564,0.0,na,0.2139,,,,,
JVASP-15114,PrBPd3,-0.54004,0.0,0.0,0.1312,,,,,
JVASP-93383,CeSe2,-1.56523,0.921,na,0.1518,,,,,
JVASP-74549,YBeCd2,-0.03532,0.0,na,0.2414,,,,,
JVASP-94793,Na3PSe4,-0.79511,1.334,2.293,0.0,,,,,
JVASP-71922,BeCr2W,0.11629,0.0,0.0,0.334,,,,,
JVASP-105924,Y2CI2,-1.10481,0.528,na,0.0041,,,,,
JVASP-96985,Al4CoB2O10,-2.79376,0.352,na,0.0357,,,,,
JVASP-92610,MnPbO3,-1.55084,0.0,na,0.0537,,,,,
JVASP-105783,La3Zn,-0.09219,0.0,na,0.0926,,,,,
JVASP-16225,ScGe,-0.8522,0.0,0.0,0.0,,,,,
JVASP-2085,SiRu,-0.51056,0.242,0.191,0.0,,,,,
JVASP-14666,PrN,-1.49567,0.0,0.669,0.0,,,,,
JVASP-75020,Ca2BeW,0.84112,0.0,0.0,1.0253,,,,,
JVASP-107920,ErMgTl2,-0.21447,0.0,0.0,0.0336,,,,,
JVASP-74927,TaBePt2,-0.37391,0.0,na,0.2951,,,,,
JVASP-95533,LiCoH24C8N8O12,-0.31852,2.656,na,0.0,,,,,
JVASP-96793,Mg2PClO4,-2.64041,5.453,na,0.004,,,,,
JVASP-93208,Mg6TiNb,0.21775,0.0,na,0.2177,,,,,
JVASP-71702,Be2SeCl,-0.13255,0.0,na,0.8923,,,,,
JVASP-92870,HfMg6Nb,0.14238,0.0,na,0.1424,,,,,
JVASP-71813,LiBeFe2,0.0839,0.0,0.0,0.1864,,,,,
JVASP-74974,BeNbMo,0.37943,0.0,0.0,0.5772,,,,,
JVASP-96867,H8C2NCl,-0.28557,5.125,na,0.0914,,,,,
JVASP-94169,Mg6CoC,0.33069,0.0,na,0.3517,,,,,
JVASP-92406,YNi2P2,-1.01407,0.0,na,0.0,,,,,
JVASP-93829,YbSnHg,-0.52066,0.0,na,0.0,,,,,
JVASP-107998,Tm2GaCu,-0.4771,0.0,0.0,0.0102,,,,,
JVASP-17346,MoO2,-1.74918,0.0,na,0.407,,,,,
JVASP-74786,Hf2BeW,-0.07584,0.0,0.0,0.1468,,,,,
JVASP-74421,Sr2TaBe,1.10615,0.0,na,1.2066,,,,,
JVASP-16055,SrAsPt,-1.06078,0.0,na,0.0,,,,,
JVASP-74603,BeBi4Sb,0.75605,0.0,na,0.7592,,,,,
JVASP-93881,SmInPt4,-0.81771,0.0,na,0.0,,,,,
JVASP-74733,BePb2Se,0.43123,0.0,na,0.8964,,,,,
JVASP-106074,Ga3SiNi4,-0.38875,0.0,na,0.0269,,,,,
JVASP-92339,CaCoO3,-1.90891,0.0,na,0.1115,,,,,
JVASP-91434,Hf2P2O9,-3.04747,5.059,na,0.0,,,,,
JVASP-3318,ZnGa2Se4,-0.64723,1.408,2.839,0.0,,,,,
JVASP-71754,MnBeCr2,0.11145,0.0,0.0,0.1996,,,,,
JVASP-92527,SmMg2Sb2,-0.66949,0.0,na,0.0374,,,,,
JVASP-93679,Hg2N,1.15016,0.0,na,1.1553,,,,,
JVASP-74928,Be2NbGe,-0.09333,0.0,na,0.1713,,,,,
JVASP-28507,Te4Mo3S2,-0.39896,0.0,na,0.082,,,,,
JVASP-14809,Ce,0.04089,0.0,na,0.0,,,,,
JVASP-92759,MgCuO3,-0.93204,0.0,na,0.5799,,,,,
JVASP-105990,Ta2MoS6,-1.074,0.0,na,0.0109,,,,,
JVASP-94295,SmCu2,-0.28928,0.0,na,0.0,,,,,
JVASP-96089,K2CdP2O7,-2.25164,4.131,na,0.0,,,,,
JVASP-91349,K3AuSe13,-0.41144,0.652,na,0.0,,,,,
JVASP-93222,LaCoO3,-2.45376,0.0,na,0.0497,,,,,
JVASP-74825,Be2NbNi,-0.08478,0.0,0.302,0.2433,,,,,
JVASP-92290,SrZn2P2,-0.75916,0.767,na,0.0,,,,,
JVASP-43200,MnNiP2O8,-1.84687,0.258,na,0.0371,,,,,
JVASP-43100,Li2Cr3NiO8,-1.94963,0.0,0.0,0.0511,,,,,
JVASP-74555,BePPt,-0.06242,0.0,na,0.5067,,,,,
JVASP-18711,Ti3Ga,-0.31268,0.0,0.0,0.0,,,,,
JVASP-108106,LiLaTi2O6,-3.2249,1.795,na,0.096,,,,,
JVASP-93279,KVF3,-2.82233,0.812,na,0.0,,,,,
JVASP-74736,Na2TaBe,0.89268,0.0,na,0.9992,,,,,
JVASP-98974,K6CoSe4,-1.02076,0.464,na,0.0325,,,,,
JVASP-74604,Be2PtBr,0.22691,0.0,na,0.8933,,,,,
JVASP-105849,Pr3Sm,0.0081,0.0,0.0,0.0209,,,,,
JVASP-94351,MgSn,-0.02058,0.0,na,0.172,,,,,
JVASP-94832,Rh3Pb2Se2,-0.2977,0.0,na,0.0426,,,,,
JVASP-91496,Nb2TlPS10,-0.64261,1.31,1.773,0.0,,,,,
JVASP-54887,MnSbRh2,-0.18196,0.0,na,0.0366,,,,,
JVASP-43585,Na4MnO4,-1.69088,0.303,na,0.0691,,,,,
JVASP-93742,CeSiPt,-1.08612,0.0,na,0.0,,,,,
JVASP-18894,TiNiO6,-0.85577,0.0,0.0,0.6831,,,,,
JVASP-95008,K3CrF3,-1.96696,0.157,na,0.5412,,,,,
JVASP-106153,ZnAgN,0.25246,0.0,na,0.2877,,,,,
JVASP-93080,Mg6SiMo,0.19328,0.0,na,0.288,,,,,
JVASP-71866,BePCl2,0.4521,0.0,na,1.5714,,,,,
JVASP-42851,Pr2HgPb,-0.48553,0.0,na,0.0,,,,,
JVASP-21529,Mg3B2O6,-2.89141,5.694,7.54,0.0,,,,,
JVASP-74875,TiBeGe,0.21312,0.0,na,0.6279,,,,,
JVASP-92915,Mg6SbW,0.17309,0.0,na,0.3774,,,,,
JVASP-99100,Ba2UCu2S5,-1.54483,0.012,0.0,0.0,,,,,
JVASP-48274,Li2Mn2C3O9,-1.58687,2.101,na,0.1198,,,,,
JVASP-105707,K,0.06145,0.0,na,0.0,,,,,
JVASP-74930,K2LiBe,0.59212,0.0,na,0.5967,,,,,
JVASP-91274,RbV3O8,-2.47749,1.899,na,0.0113,,,,,
JVASP-91221,Nd2AlCo2,-0.31152,0.0,na,0.012,,,,,
JVASP-107921,ErTmHg2,-0.39714,0.0,na,0.0,,,,,
JVASP-105667,Rb2YAgBr6,-1.6094,3.339,na,0.0,,,,,
JVASP-95058,TiFeH,-0.34207,0.0,na,0.0711,,,,,
JVASP-74737,MnBe2Zn,0.0595,0.0,na,0.2359,,,,,
JVASP-72020,Mn2BePt,-0.13263,0.0,0.0,0.1405,,,,,
JVASP-74605,BeCoRu,0.08236,0.0,na,0.2931,,,,,
JVASP-105785,KCa3,0.15428,0.0,na,0.169,,,,,
JVASP-94115,NaMg6Ni,0.07898,0.0,na,0.1708,,,,,
JVASP-94731,LiCaMg6,-0.00742,0.0,na,0.0768,,,,,
JVASP-93158,LiMg6Cr,0.15033,0.0,na,0.1813,,,,,
JVASP-3366,Ba2MnZn2As2O2,-1.37948,0.0,0.0,0.0301,,,,,
JVASP-74876,MnBe2Se,0.25574,0.0,na,0.8091,,,,,
JVASP-16120,Ca3AuN,-0.93094,0.0,na,0.0026,,,,,
JVASP-3723,SrHClO,-2.24473,5.206,7.444,0.0,,,,,
JVASP-75023,BeCuTe,0.29277,0.0,0.0,0.5748,,,,,
JVASP-94794,Mg7V,0.19,0.0,na,0.19,,,,,
JVASP-93830,PrInPt4,-0.80726,0.0,na,0.0,,,,,
JVASP-3915,NdBr3,-1.98489,2.654,3.747,0.0,,,,,
JVASP-92760,RbCrO3,-1.76921,0.0,na,0.2752,,,,,
JVASP-92568,KFe2Te2,-0.28795,0.0,na,0.1376,,,,,
JVASP-95240,H5CSN2ClO4,-0.20212,2.011,2.958,0.613,,,,,
JVASP-93930,CeZn2,-0.31567,0.0,na,0.0392,,,,,
JVASP-92291,Zr2CuH2,-0.3837,0.0,na,0.0363,,,,,
JVASP-74689,Be2InTc,0.11479,0.286,0.288,0.2804,,,,,
JVASP-71924,BeIr2Se,0.39609,0.0,na,0.8613,,,,,
JVASP-20070,VIr3,-0.48763,0.0,0.0,0.0176,,,,,
JVASP-71704,YBeCo2,0.14911,0.0,0.0,0.4491,,,,,
JVASP-92871,Mg6NbCd,0.11107,0.0,na,0.1513,,,,,
JVASP-74507,LiMgBe2,0.19984,0.0,na,0.258,,,,,
JVASP-92477,Pu2O3,-3.35872,0.0,na,0.0,,,,,
JVASP-74648,CaBeBi2,0.05378,0.0,0.0,0.4983,,,,,
JVASP-71868,Be2PtPb,0.06714,0.0,na,0.4539,,,,,
JVASP-93209,KNaMg6,0.13214,0.0,na,0.136,,,,,
JVASP-94880,DyGa5Co,-0.45498,0.0,na,0.0,,,,,
JVASP-107999,Yb2AgSb,-0.81871,0.0,0.112,0.0,,,,,
JVASP-43201,Li2V3WO8,-2.41409,0.005,na,0.0548,,,,,
JVASP-13891,YbNd2S4,-1.99483,1.69,2.352,0.3176,,,,,
JVASP-96541,Mg2B24C,-0.15125,2.761,na,0.0,,,,,
JVASP-95386,Rb6Te2O9,-1.57106,0.887,na,0.0,,,,,
JVASP-93446,SrMnSn,-0.21484,0.0,na,0.2898,,,,,
JVASP-74466,Be2ZnSi,0.39527,0.0,0.0,0.3965,,,,,
JVASP-20096,TiB2,-1.04833,0.0,na,0.0,,,,,
JVASP-92705,KFe2S2,-0.79731,0.0,na,0.0,,,,,
JVASP-74788,ScBe2Cl,0.13573,0.0,0.0,1.0191,,,,,
JVASP-94170,Mg6VCo,0.22418,0.0,na,0.2764,,,,,
JVASP-96795,KNaS2O7,-1.72226,5.722,na,0.0,,,,,
JVASP-99278,LiCu2O2,-1.09231,0.0,na,0.0139,,,,,
JVASP-92611,Bi2TeO2,-1.0146,0.0,na,0.0,,,,,
JVASP-74556,KSrBe2,0.78284,0.0,na,0.8271,,,,,
JVASP-95535,FeSb2O4,-1.33066,0.0,na,0.0491,,,,,
JVASP-93743,UCu4Ag,0.07273,0.0,na,0.0727,,,,,
JVASP-74422,Hf2BeTc,-0.25155,0.0,0.0,0.0775,,,,,
JVASP-105850,Ta2FeRu,-0.22965,0.0,na,0.0381,,,,,
JVASP-1735,LuB2,-0.73188,0.0,0.0,0.0,,,,,
JVASP-92340,AgO,-0.22342,0.0,na,0.0,,,,,
JVASP-71814,LiBeCu2,-0.00907,0.0,na,0.1116,,,,,
JVASP-108109,LiTa2CuO6,-2.58229,1.157,na,0.0248,,,,,
JVASP-93340,TbB2Rh3,-0.70299,0.0,na,0.0,,,,,
JVASP-17347,YNiO3,-2.23767,0.0,na,0.2005,,,,,
JVASP-74975,MnBe2Ir,-0.18359,0.0,0.0,0.2339,,,,,
JVASP-28709,TeMoS,-0.49828,0.032,na,0.1029,,,,,
JVASP-105668,Rb2CuSbCl6,-1.31416,0.746,na,0.0,,,,,
JVASP-71926,BeVRe2,0.02969,0.0,0.0,0.3499,,,,,
JVASP-3507,ZnIn2Se4,-0.59281,0.932,2.246,0.0,,,,,
JVASP-15605,SrMn2P2,-0.65751,0.0,na,0.0679,,,,,
JVASP-91222,Dy2AlCo2,-0.45454,0.0,na,0.0,,,,,
JVASP-93680,TmAlZn,-0.46396,0.0,na,0.0,,,,,
JVASP-96092,ZnS,-0.88636,2.094,na,0.0005,,,,,
JVASP-99102,AlPS4,-0.07475,0.0,na,0.565,,,,,
JVASP-48504,Li5VCr3O8,-2.12108,0.255,na,0.1332,,,,,
JVASP-96927,Fe2CoAs2H10O14,-1.08967,0.001,na,0.0605,,,,,
JVASP-92407,PrNi2As2,-0.78391,0.0,na,0.032,,,,,
JVASP-74828,MgBe2Co,0.141,0.0,na,0.3882,,,,,
JVASP-15085,VSb2,-0.01904,0.0,na,0.0526,,,,,
JVASP-74508,Be2SiTc,-0.1366,0.0,na,0.1234,,,,,
JVASP-48133,Fe4O7F,-1.51797,0.0,0.0,0.0122,,,,,
JVASP-105929,Mg2Ga2S5,-1.13836,1.239,2.377,0.0,,,,,
JVASP-18411,HRh,0.12626,0.0,0.0,0.1269,,,,,
JVASP-74606,Be2GaFe,-0.11691,0.0,na,0.108,,,,,
JVASP-15449,NdAgSn,-0.63609,0.0,na,0.0,,,,,
JVASP-74423,Sr2ZrBe,0.75172,0.0,na,0.8238,,,,,
JVASP-74932,NaCa2Be,0.29016,0.0,0.0,0.335,,,,,
JVASP-93280,RbVF3,-2.82616,0.844,na,0.0,,,,,
JVASP-29181,Te4MoW3Se2S2,-0.31142,0.221,na,0.2364,,,,,
JVASP-92528,Ca2AgPd2,-0.68191,0.0,na,0.0,,,,,
JVASP-71755,BePSe,0.17733,0.0,na,0.7975,,,,,
JVASP-93082,Mg6CrSi,0.16613,0.0,na,0.2674,,,,,
JVASP-94391,YMg5,-0.02181,0.0,na,0.0375,,,,,
JVASP-5665,TaTe2Cl6,-1.00329,0.803,0.903,0.0,,,,,
JVASP-95059,YbCu4Pd,-0.41561,0.0,na,0.0,,,,,
JVASP-105787,Li2CdIn,-0.30453,0.0,na,0.0422,,,,,
JVASP-91497,AgSbPbS3,-0.36765,1.076,na,0.0215,,,,,
JVASP-91352,LiBiO3,-1.36758,0.193,na,0.0068,,,,,
JVASP-92916,HfMg6W,0.16478,0.0,na,0.2344,,,,,
JVASP-105993,Sr4SeS3,-2.31814,2.359,3.36,0.0056,,,,,
JVASP-94296,CO2,-0.92025,7.814,na,0.3976,,,,,
JVASP-74739,Na2SrBe,0.41117,0.0,0.0,0.4383,,,,,
JVASP-93227,KNi2Se2,-0.5585,0.0,na,0.0001,,,,,
JVASP-93831,SrMnGe,-0.26269,0.0,na,0.2085,,,,,
JVASP-1888,InHg,0.11195,0.0,0.0,0.1146,,,,,
JVASP-71928,Be2Hg2Mo,0.84745,0.0,na,1.0242,,,,,
JVASP-94732,CaMg6V,0.13265,0.0,na,0.1858,,,,,
JVASP-92292,Li2CaN2,-0.3606,0.0,na,0.3535,,,,,
JVASP-71967,Mn2BeRh,-0.10914,0.0,0.0,0.1904,,,,,
JVASP-94352,Hf2Mg,1.32733,0.0,na,1.3273,,,,,
JVASP-74976,Be2GaMo,-0.01843,0.0,0.0,0.2025,,,,,
JVASP-74649,MgBe2Bi,0.61248,0.0,na,0.7238,,,,,
JVASP-94926,FeRh2Se4,-0.32035,0.0,na,0.0613,,,,,
JVASP-108001,Yb3Al,-0.12281,0.0,0.0,0.029,,,,,
JVASP-92873,BaMg6Sb,-0.11702,0.0,na,0.1987,,,,,
JVASP-94117,Mg6TiCo,0.12874,0.0,na,0.2327,,,,,
JVASP-16056,ErCoC,-0.42743,0.0,na,0.0,,,,,
JVASP-96986,Ti4Cu2O,-0.94649,0.0,na,0.0,,,,,
JVASP-93884,LiFeP,-0.60439,0.0,na,0.096,,,,,
JVASP-93781,SmAsSe,-1.51139,0.0,na,0.026,,,,,
JVASP-2011,KH,-0.32572,3.537,5.925,0.0,,,,,
JVASP-75024,Hf2BeV,0.11071,0.0,0.0,0.1941,,,,,
JVASP-74607,Be2SbCl,0.0684,0.0,na,0.6281,,,,,
JVASP-92664,CaSi3Pt,-0.61426,0.0,na,0.0,,,,,
JVASP-91275,SrV4O9,-2.64723,0.725,na,0.0803,,,,,
JVASP-14746,TaSe2,-0.82142,0.0,0.0,0.0018,,,,,
JVASP-16226,YGe,-0.93058,0.0,na,0.0,,,,,
JVASP-91438,Ca2ThSi8O20,-3.12636,5.027,na,0.0,,,,,
JVASP-96798,CIClF4,-1.14709,2.32,na,0.1885,,,,,
JVASP-94795,HfAu3,-0.50828,0.0,na,0.0,,,,,
JVASP-93210,Mg6TiNb,0.14323,0.0,na,0.1432,,,,,
JVASP-74933,Be2FeRu,-0.12972,0.0,na,0.141,,,,,
JVASP-16121,NpSi2Pd2,-0.59442,0.0,0.0,0.0,,,,,
JVASP-74877,BeFe4Mo,0.08077,0.0,0.0,0.1668,,,,,
JVASP-105851,Yb3Sr,0.02929,0.0,na,0.0293,,,,,
JVASP-74424,HfBe2Pt,-0.38705,0.0,0.0,0.3373,,,,,
JVASP-20071,NpB2,-0.53086,0.0,0.0,0.0,,,,,
JVASP-14928,MnNbSi,-0.46887,0.0,na,0.0,,,,,
JVASP-11964,Nb2Al,-0.27951,0.0,na,0.0,,,,,
JVASP-14645,YbPt3,-0.88231,0.0,0.0,0.0129,,,,,
JVASP-106076,FeCoAs4,-0.2656,0.0,na,0.0121,,,,,
JVASP-74557,ScBeIn,-0.19147,0.0,0.0,0.1518,,,,,
JVASP-28379,MoS2,-0.95754,0.958,1.364,0.0041,,,,,
JVASP-50369,Hf2N2O,-2.39041,2.51,na,0.0604,,,,,
JVASP-18945,SmP,-1.66878,0.0,0.0,0.0,,,,,
JVASP-94833,CeB6,-0.53379,0.0,na,0.0,,,,,
JVASP-93159,LiMg6Cd,-0.06621,0.0,na,0.016,,,,,
JVASP-3369,K3MnO4,-1.85099,1.151,na,0.0,,,,,
JVASP-71705,BePBr2,0.56978,0.0,na,1.3714,,,,,
JVASP-74691,MnBe2Ni,-0.11638,0.0,0.0,0.2056,,,,,
JVASP-99279,NaCa4B3O9,-3.01557,4.414,na,0.0,,,,,
JVASP-92478,TbBaO3,-2.93441,0.0,na,0.1481,,,,,
JVASP-3918,SmBr3,-1.96929,2.691,4.001,0.0,,,,,
JVASP-95009,LiFe2Cl2O2,-1.27717,0.0,na,0.1408,,,,,
JVASP-95392,Cr2CuO4,-1.7804,0.0,na,0.0292,,,,,
JVASP-106155,Ba2NiN2,-0.58449,0.0,0.0,0.0,,,,,
JVASP-98977,Sn2S3,-0.49379,0.639,na,0.0,,,,,
JVASP-74650,BeSb2Te,0.64607,0.0,na,0.8576,,,,,
JVASP-93341,CeSi2,-0.58491,0.0,na,0.0,,,,,
JVASP-95548,LiInSi2O6,-2.55966,3.891,na,0.0,,,,,
JVASP-74789,Be2MoW,0.02499,0.0,na,0.3851,,,,,
JVASP-96544,Tb3CuSiSe7,-1.37663,1.63,na,0.0,,,,,
JVASP-92706,ThSi3Rh,-0.73367,0.0,na,0.0,,,,,
JVASP-95243,NaB3H4O7,-1.93866,5.615,na,0.0,,,,,
JVASP-92409,DyP2Ru2,-0.98779,0.0,na,0.0,,,,,
JVASP-96869,NpH16C4N8ClO6,-0.74584,0.451,na,0.0363,,,,,
JVASP-92761,MgFeO3,-1.63553,0.0,na,0.4305,,,,,
JVASP-93384,SmB2Ir3,-0.65091,0.0,na,0.0,,,,,
JVASP-1738,Rb2Se,-1.16566,1.842,3.786,0.0,,,,,
JVASP-105669,Rb2AlHgBr6,-1.20366,0.0,na,0.1244,,,,,
JVASP-28407,WSe2,-0.50474,1.219,1.726,0.0399,,,,,
JVASP-93509,HC2,0.05983,0.0,na,0.1496,,,,,
JVASP-108110,TbLaC4,-0.3397,0.0,na,0.0,,,,,
JVASP-74467,NaBe2Pd,0.03269,0.0,0.0,0.358,,,,,
JVASP-96928,Ce3Ag4Sn4,-0.45116,0.0,na,0.0288,,,,,
JVASP-105932,Dy6MnBi2,-0.4149,0.0,na,0.0,,,,,
JVASP-18586,Li2InAg,-0.30848,0.0,na,0.0,,,,,
JVASP-93744,ZrCu2,-0.14994,0.0,na,0.0,,,,,
JVASP-92569,NiNF3,0.13308,0.0,na,1.484,,,,,
JVASP-74559,Be2OsCl,0.12373,0.0,na,0.6834,,,,,
JVASP-94182,Mg6SiNi,0.02951,0.0,na,0.1999,,,,,
JVASP-14667,HfB,-0.4605,0.0,0.0,0.2947,,,,,
JVASP-91223,Tb2AlCo2,-0.43639,0.0,na,0.0,,,,,
JVASP-48742,VOF,-2.67866,0.0,na,0.0428,,,,,
JVASP-95060,TbCu4Au,-0.37018,0.0,na,0.0,,,,,
JVASP-92293,Hf2H2Pd,-0.54538,0.0,na,0.0312,,,,,
JVASP-105994,Sr2ZnSb2,-0.78608,0.0,na,0.0047,,,,,
JVASP-49963,SrCaI4,-1.70824,3.546,4.412,0.0563,,,,,
JVASP-93282,LaCo2P2,-1.01274,0.0,na,0.0,,,,,
JVASP-96987,KCdCl3,-1.54679,3.547,na,0.0,,,,,
JVASP-15010,YPt2,-1.13283,0.0,na,0.0431,,,,,
JVASP-91354,V4Cu3S8,-0.80505,0.0,na,0.0534,,,,,
JVASP-105710,AlO2,-2.49838,0.272,na,0.2647,,,,,
JVASP-74790,HfBe2Ru,-0.08317,0.0,0.0,0.4364,,,,,
JVASP-74510,Be2TePt,0.29064,0.0,na,0.7547,,,,,
JVASP-93447,MgMnGe,-0.18975,0.0,na,0.0176,,,,,
JVASP-15355,NdNi2Ge2,-0.69393,0.0,na,0.0,,,,,
JVASP-71969,Na2TaBe,0.915,0.0,na,1.0215,,,,,
JVASP-93933,Th2Al,-0.24845,0.0,na,0.0,,,,,
JVASP-105793,LiTl3,-0.06836,0.0,na,0.054,,,,,
JVASP-74609,Na2YBe,0.4928,0.0,na,0.4989,,,,,
JVASP-15606,YMgGa,-0.54336,0.0,na,0.0,,,,,
JVASP-74979,K2BeTe,-0.12891,1.152,1.6,0.7021,,,,,
JVASP-92612,SrRuO3,-2.00633,0.0,na,0.0281,,,,,
JVASP-5191,SbSBr,-0.50675,1.71,2.414,0.0081,,,,,
JVASP-74829,NaBeCl2,-0.57338,0.0,1.831,0.9545,,,,,
JVASP-94881,KCu4Sb2,-0.13112,0.0,na,0.0189,,,,,
JVASP-71815,BeVOs2,-0.06496,0.0,0.0,0.2024,,,,,
JVASP-108002,Yb3Sn,-0.54897,0.0,na,0.0,,,,,
JVASP-92874,Mg6CrW,0.28983,0.0,na,0.3594,,,,,
JVASP-74878,Be2CrW,0.07493,0.0,na,0.3712,,,,,
JVASP-44720,P2WO7,-2.12217,0.057,na,0.0222,,,,,
JVASP-74425,Be2PIr,-0.04766,0.0,na,0.4703,,,,,
JVASP-74740,Ca2BeIn,-0.0744,0.0,0.0,0.2883,,,,,
JVASP-93511,CrF5,-1.85212,0.0,na,0.4056,,,,,
JVASP-105852,Yb3Sr,0.02299,0.0,na,0.023,,,,,
JVASP-72021,BeCu2Tc,0.22432,0.0,0.0,0.3065,,,,,
JVASP-94392,YMg2,0.01904,0.0,na,0.1296,,,,,
JVASP-94927,Ba3Sc4,0.38401,0.0,na,0.384,,,,,
JVASP-93682,HgNCl,0.85599,0.0,na,1.1278,,,,,
JVASP-96799,CaTa2Bi2O9,-2.55476,2.229,na,0.0694,,,,,
JVASP-94796,ZnCu2SnTe4,-0.20371,0.0,na,0.0131,,,,,
JVASP-99103,SnSe2O6,-1.10066,3.328,na,0.0,,,,,
JVASP-15086,ScN,-2.15468,0.02,0.736,0.0,,,,,
JVASP-74561,BeBi2Ru,0.71545,0.0,na,0.8504,,,,,
JVASP-93085,Mg6SiMo,0.16428,0.0,na,0.259,,,,,
JVASP-74934,BeTlHg2,0.64856,0.0,na,0.6486,,,,,
JVASP-44344,Li3Mn2FeB3O9,-2.12293,0.099,na,0.1001,,,,,
JVASP-92917,Mg6GaW,0.14506,0.0,na,0.2587,,,,,
JVASP-94733,CaMg6Sn,-0.09662,0.0,na,0.1405,,,,,
JVASP-74468,BeCuW,0.14655,0.0,na,0.405,,,,,
JVASP-71757,Li2BeMo,0.44588,0.0,na,0.5568,,,,,
JVASP-74983,K2BePd,0.57792,0.0,na,0.8624,,,,,
JVASP-93832,CaClO,-2.0514,0.542,na,0.3298,,,,,
JVASP-93228,TaSe2,-0.8211,0.0,na,0.0021,,,,,
JVASP-106078,Er2Al3Ga,-0.53321,0.0,na,0.0197,,,,,
JVASP-74428,TiBeTe4,1.00242,0.0,na,1.5077,,,,,
JVASP-94118,Mg6CdCo,0.07357,0.0,na,0.1253,,,,,
JVASP-92480,CeAl2Ge2,-0.45087,0.0,na,0.0,,,,,
JVASP-96101,SiO2,-2.37669,1.56,na,0.5246,,,,,
JVASP-44032,LiFe2F5,-2.25141,0.303,na,0.0569,,,,,
JVASP-93885,TmCuGe,-0.68172,0.0,na,0.0,,,,,
JVASP-108112,KRbMnF6,-2.8554,2.396,2.596,0.0,,,,,
JVASP-42647,LiVF5,-2.95959,0.0,na,0.0745,,,,,
JVASP-74511,BeMoSe,0.2035,0.0,0.0,0.8237,,,,,
JVASP-107933,Hg3Pt,0.35126,0.0,0.0,0.3513,,,,,
JVASP-95013,YbFe2O4,-1.99976,0.0,na,0.1207,,,,,
JVASP-96988,MnTlI3,-0.51005,1.234,na,0.0,,,,,
JVASP-75025,Be2CdFe,0.22956,0.0,0.0,0.4338,,,,,
JVASP-108003,Yb3Nd,0.06287,0.0,na,0.0629,,,,,
JVASP-105995,Sr2ZnBi2,-0.6493,0.0,na,0.0672,,,,,
JVASP-94353,MgSn2,-0.00851,0.0,na,0.1199,,,,,
JVASP-54759,NaHO,-1.39886,3.652,6.643,0.0265,,,,,
JVASP-92341,LaCoGe3,-0.61792,0.0,na,0.0,,,,,
JVASP-91224,CeMgNi4,-0.42019,0.0,na,0.0,,,,,
JVASP-92529,Sr2CdPt2,-0.84275,0.0,na,0.0,,,,,
JVASP-1245,CdF2,-2.30934,3.063,6.38,0.0,,,,,
JVASP-93212,CeMg6Co,0.11828,0.0,na,0.1774,,,,,
JVASP-14646,TiFe,-0.47391,0.0,na,0.0001,,,,,
JVASP-18519,SrMnBi2,-0.26461,0.0,na,0.2188,,,,,
JVASP-14810,Sc,0.0,0.0,0.0,0.0,,,,,
JVASP-71973,Na2Be2Sn,0.22842,0.0,na,0.3819,,,,,
JVASP-71708,LiBe2Si,0.3997,0.0,na,0.4975,,,,,
JVASP-91276,CeMgPd,-0.57904,0.0,na,0.0,,,,,
JVASP-93160,LiMg6Sb,-0.11318,0.0,na,0.1247,,,,,
JVASP-92294,Al3Ru2,-0.48055,0.0,na,0.2046,,,,,
JVASP-14929,UO,-2.46591,0.0,na,0.2181,,,,,
JVASP-92875,Mg6CrSb,0.07806,0.0,na,0.2127,,,,,
JVASP-52370,SbOF,-1.87854,3.261,5.053,0.0391,,,,,
JVASP-96930,Dy5Si4,-0.73872,0.0,na,0.0133,,,,,
JVASP-3204,HoAgTe2,-0.91848,0.885,1.303,0.0,,,,,
JVASP-1288,Li2S,-1.4862,3.502,4.262,0.0356,,,,,
JVASP-74692,Be2SbW,0.28455,0.0,0.0,0.497,,,,,
JVASP-71758,BeReBr2,1.35369,0.0,0.0,2.1553,,,,,
JVASP-92763,RbTaO3,-2.83557,2.132,na,0.0007,,,,,
JVASP-94183,Mg6VCu,0.1741,0.0,na,0.2243,,,,,
JVASP-19873,BaSn,-0.77239,0.0,0.0,0.0,,,,,
JVASP-43590,LiFeF4,-2.55894,1.293,na,0.0158,,,,,
JVASP-98982,Ba2ZnO3,-2.42148,3.002,na,0.0,,,,,
JVASP-74562,BeVRh,-0.09209,0.0,0.0,0.3439,,,,,
JVASP-74651,Be2CdIr,0.03123,0.0,0.0,0.3422,,,,,
JVASP-92411,ZrFe2Si2,-0.62883,0.0,na,0.0,,,,,
JVASP-99280,Pr2SnS5,-1.59836,0.0,na,0.0,,,,,
JVASP-95062,NdSiPt,-1.12367,0.0,na,0.0,,,,,
JVASP-91499,ThSe2O7,-1.76119,3.983,na,0.0,,,,,
JVASP-93342,GeO2,-1.76172,1.366,na,0.0162,,,,,
JVASP-94834,BaZnBO3F,-2.75194,3.84,na,0.0,,,,,
JVASP-74512,NaBe2Ru,0.34046,0.0,na,0.6133,,,,,
JVASP-96551,Sm3CuSnSe7,-1.35357,1.13,na,0.0113,,,,,
JVASP-93783,YbSe2,-1.32395,0.0,na,0.1506,,,,,
JVASP-92707,Mn3CuN,1.79429,0.0,na,1.9947,,,,,
JVASP-29183,Te4Mo3WSe2S2,-0.4289,0.226,0.347,0.1205,,,,,
JVASP-95396,Cu12As4S13,-0.25747,0.0,na,0.0087,,,,,
JVASP-74610,BeSnPb2,0.51808,0.0,na,0.5181,,,,,
JVASP-91439,Co2SiO4,-1.63359,0.004,na,0.165,,,,,
JVASP-74429,BeTcPt2,-0.06745,0.0,na,0.242,,,,,
JVASP-2172,P2Os,-0.51934,0.797,na,0.0,,,,,
JVASP-108114,KIO3,-1.06942,2.6,3.493,0.0,,,,,
JVASP-74741,BeSnPb2,0.52242,0.0,na,0.5224,,,,,
JVASP-74937,Be2TcPt,-0.14926,0.0,na,0.2645,,,,,
JVASP-48505,Mn3OF5,-2.29588,0.0,0.0,0.0,,,,,
JVASP-94735,CaMg6Ti,0.07041,0.0,na,0.1236,,,,,
JVASP-74563,KBeGa4,0.33584,0.0,na,0.474,,,,,
JVASP-93386,UGaCu,-0.11034,0.0,na,0.0013,,,,,
JVASP-105670,Rb2AgMoI6,-0.69211,0.278,na,0.0124,,,,,
JVASP-18919,ScRh3,-0.65071,0.0,0.0,0.0079,,,,,
JVASP-15132,DyAlNi,-0.65912,0.0,0.0,0.0,,,,,
JVASP-92481,UNi2Ge2,-0.34952,0.0,na,0.0246,,,,,
JVASP-95245,PH9N2O4,-1.00892,5.134,na,0.0,,,,,
JVASP-107939,Li2HgBi,-0.38326,0.0,0.0,0.0056,,,,,
JVASP-94393,Mg2Zn,-0.0307,0.0,na,0.0419,,,,,
JVASP-105933,LiMgSb,-0.63425,1.39,1.707,0.0,,,,,
JVASP-94928,PrIn5Co,-0.28068,0.0,na,0.0073,,,,,
JVASP-92918,Mg6SbW,0.1181,0.0,na,0.3224,,,,,
JVASP-93934,LaRh2,-0.73702,0.0,na,0.0,,,,,
JVASP-92571,K2Te2Pd,-0.73304,0.844,na,0.1341,,,,,
JVASP-93086,NaSrMg6,0.06044,0.0,na,0.1222,,,,,
JVASP-95549,LiGaSi2O6,-2.63105,4.59,na,0.0111,,,,,
JVASP-20072,UOs2,-0.13572,0.0,0.0,0.0561,,,,,
JVASP-74791,TiBe2V,0.07316,0.0,0.0,0.246,,,,,
JVASP-92342,CrTe,0.02764,0.0,na,0.1663,,,,,
JVASP-93287,AlAsO4,-2.06214,4.429,na,0.076,,,,,
JVASP-74880,TiBe2Br,0.13341,0.0,0.0,0.7361,,,,,
JVASP-94120,Mg6CoSb,0.054,0.0,na,0.2002,,,,,
JVASP-14712,PrMg3,-0.12484,0.0,0.0,0.0,,,,,
JVASP-93450,CrCl2,-0.95158,0.0,na,0.0732,,,,,
JVASP-1864,NaNiO2,-1.30215,0.0,0.308,0.0105,,,,,
JVASP-18412,TaH2,-0.07946,0.0,0.0,0.0,,,,,
JVASP-50720,Li3CuF4,-2.67441,2.323,na,0.0254,,,,,
JVASP-74830,MnBe2P,-0.17087,0.0,0.0,0.1492,,,,,
JVASP-93886,ScCdNi4,-0.40212,0.0,na,0.0,,,,,
JVASP-94797,KO2F,-0.32281,0.0,na,1.1462,,,,,
JVASP-94185,Mg6CrCu,0.17028,0.0,na,0.2205,,,,,
JVASP-105711,Yb3Ba,0.04684,0.0,0.0,0.0468,,,,,
JVASP-94297,BaAg2,-0.35741,0.0,na,0.0192,,,,,
JVASP-105998,Sr2Al7Ge,-0.3385,0.0,na,0.0279,,,,,