jid,formula,formation_energy_per_atom,optb88vdw_bandgap,mbj_bandgap,ehull,spacegroup_number,natoms,volume,bulk_modulus_kv,shear_modulus_gv
JVASP-13388,K2TeSe3,-0.75056,1.615,2.662,0.0,,,,,
JVASP-105502,Ga2CuAgSe4,-0.45615,0.022,0.727,0.0,,,,,
JVASP-104730,LaBeAl3,-0.34108,0.0,na,0.0697,,,,,
JVASP-107056,K3I2Br,-1.69396,3.795,na,0.0,,,,,
JVASP-234,NiO2,-0.81827,0.821,na,0.0145,,,,,
JVASP-101954,CdH8C6O4,-0.52353,4.035,na,0.1068,,,,,
JVASP-101580,LiGa3,-0.20481,0.0,0.0,0.005,,,,,
JVASP-106610,Tb3Bi,-0.37131,0.0,na,0.1122,,,,,
JVASP-101688,TeMo2Se3,-0.55429,0.717,na,0.0095,,,,,
JVASP-51115,CoReGe2,0.56606,0.0,na,0.6625,,,,,
JVASP-107004,TbMg2Cu,0.02016,0.0,0.0,0.2049,,,,,
JVASP-2466,CaMg2N2,-1.04169,2.487,3.452,0.0,,,,,
JVASP-106462,Rb2ScTlBr6,-1.63639,2.77,na,0.0,,,,,
JVASP-104542,Na2O,-1.35957,1.884,4.363,0.0707,,,,,
JVASP-101869,SnH18C10O4,-0.33584,4.77,na,0.121,,,,,
JVASP-107168,CeSmMg2,-0.02885,0.0,na,0.0458,,,,,
JVASP-102423,TbKRb2Cl6,-2.21039,4.735,na,0.0,,,,,
JVASP-105117,Ba2CdSn,-0.64733,0.0,na,0.0,,,,,
JVASP-14902,BaRhF6,-2.63283,0.0,0.0,0.0,,,,,
JVASP-104907,VPd4,-0.13874,0.0,na,0.0548,,,,,
JVASP-18756,PuNi2,-0.05649,0.0,na,0.2721,,,,,
JVASP-15626,Cu3SbS4,-0.28518,0.0,na,0.005,,,,,
JVASP-16909,AlMoO3,-1.60141,0.0,na,1.0255,,,,,
JVASP-101916,ZnH12C8O4,-0.45311,4.43,na,0.0968,,,,,
JVASP-2694,KNbS2,-1.32485,0.888,1.276,0.0,,,,,
JVASP-1600,KYO2,-3.04584,4.142,5.67,0.0,,,,,
JVASP-21208,Sr,0.0,0.079,na,0.0,,,,,
JVASP-1369,YN,-1.96958,0.314,1.17,0.0,,,,,
JVASP-106892,NaFeO3,-1.49624,0.095,na,0.0,,,,,
JVASP-102279,Hf3Sn,-0.24487,0.0,0.0,0.0,,,,,
JVASP-104579,Hf2ZnTc,-0.34763,0.0,na,0.0,,,,,
JVASP-101991,H3C2,-0.09213,3.765,na,0.0669,,,,,
JVASP-4122,YAgO2,-2.4864,2.698,3.306,0.0,,,,,
JVASP-102662,Ti2Si6W,-0.37439,0.0,na,0.0104,,,,,
JVASP-107111,K2RbIrF6,-2.3642,2.279,3.341,0.0937,,,,,
JVASP-103737,CaGe2N2,-0.4407,1.162,1.498,0.1887,,,,,
JVASP-105355,TmPaO4,-4.03754,2.872,na,0.0,,,,,
JVASP-2565,KZnP,-0.55433,0.938,2.101,0.0,,,,,
JVASP-102459,Bi3Au,0.15394,0.0,0.0,0.1705,,,,,
JVASP-105272,TlTcO3,-1.34526,0.0,na,0.0,,,,,
JVASP-1237,SrTiO3,-3.41872,1.906,na,0.0,,,,,
JVASP-51198,CuIrBr,1.13866,0.0,0.0,1.3205,,,,,
JVASP-102615,RbScCl3,-2.09219,0.0,na,0.0,,,,,
JVASP-102566,Tb3Ho,0.00838,0.0,na,0.0107,,,,,
JVASP-50882,YTmO3,-3.81822,4.958,na,0.0743,,,,,
JVASP-15415,VFe2Si,-0.45121,0.0,0.0,0.0,,,,,
JVASP-105589,Li2MnCoO4,-1.782,0.0,na,0.1222,,,,,
JVASP-102826,Sr2CN2,-0.62912,0.0,0.0,0.187,,,,,
JVASP-106781,MgIn2Te4,-0.50291,1.026,1.658,0.0,,,,,
JVASP-18457,CrB4,-0.2896,0.0,0.0,0.003,,,,,
JVASP-103875,SnH2C2O6,-1.16212,3.048,na,0.1385,,,,,
JVASP-102774,La2Al6CuAu,-0.63863,0.0,na,0.0,,,,,
JVASP-105428,Nd2Al3Ga,-0.55251,0.0,0.0,0.029,,,,,
JVASP-18565,TlBi,0.07876,0.0,na,0.1035,,,,,
JVASP-16164,VS2,-0.96533,0.0,0.0,0.0,,,,,
JVASP-16071,BaP2Rh2,-0.96988,0.0,na,0.0,,,,,
JVASP-28417,TeWSe,-0.21956,0.513,na,0.2226,,,,,
JVASP-106840,Ca4GaSn3,-0.71404,0.0,0.0,0.0,,,,,
JVASP-105026,K2AlHgF6,-2.84973,0.0,1.681,0.1238,,,,,
JVASP-101640,SmInCu4,-0.27258,0.0,0.043,0.0,,,,,
JVASP-103637,TmGaCu2,-0.38157,0.0,0.0,0.0,,,,,
JVASP-101689,TaWC2,-0.20993,0.0,na,0.2561,,,,,
JVASP-100990,La3Zr,0.08141,0.0,na,0.0814,,,,,
JVASP-43024,MnNbO4,-2.26843,0.0,0.0,0.0533,,,,,
JVASP-104846,In,-0.00527,0.0,na,0.0,,,,,
JVASP-3027,AlAgO2,-2.19288,1.666,2.4,0.0,,,,,
JVASP-106555,Mg2Sb,-0.2569,0.0,0.0,0.1022,,,,,
JVASP-106463,Rb3YCl6,-2.1953,4.584,na,0.0049,,,,,
JVASP-104152,H6C7SO,-0.09171,2.388,na,0.1802,,,,,
JVASP-103988,CdH20C12O4,-0.32749,3.427,na,0.082,,,,,
JVASP-105204,MgAg5,-0.12029,0.0,0.0,0.0029,,,,,
JVASP-107279,Ti2VSe4,-1.06359,0.0,na,0.0111,,,,,
JVASP-102424,Rb2LiPrI6,-1.47638,2.898,3.491,0.0,,,,,
JVASP-14728,NaGa4,-0.15702,0.0,na,0.0,,,,,
JVASP-48543,LiCo5O5F,-1.11031,0.0,na,0.231,,,,,
JVASP-101581,LiPr2Ir,-0.45004,0.0,na,0.0,,,,,
JVASP-105119,Ba2CdIn,-0.47686,0.0,0.0,0.0,,,,,
JVASP-104790,NaMnO2,-1.81753,0.858,1.373,0.0555,,,,,
JVASP-104114,H2C5S2O2,-0.04804,2.015,na,0.4077,,,,,
JVASP-3480,SrCuSeF,-2.16561,1.479,2.422,0.0,,,,,
JVASP-2571,K3Cu3P2,-0.42189,1.385,na,0.0,,,,,
JVASP-4125,AcClO,-3.37832,4.415,na,0.0,,,,,
JVASP-104631,ZrGaRh2,-0.84959,0.0,na,0.0,,,,,
JVASP-51159,TiVW,0.87336,0.0,na,1.059,,,,,
JVASP-106729,Ta2MnV3,-0.22524,0.0,na,0.0,,,,,
JVASP-102715,MgMnTe2,-0.46572,0.642,1.303,0.0807,,,,,
JVASP-104731,LaCeSn6,-0.58885,0.0,na,0.0,,,,,
JVASP-106668,HoRu3C,-0.2627,0.0,0.0,0.0,,,,,
JVASP-104956,In3SbTe2,-0.22994,0.0,0.0,0.0108,,,,,
JVASP-103585,AlGa3,0.04311,0.0,0.0,0.0556,,,,,
JVASP-102568,TbPa,0.10244,0.0,na,0.1479,,,,,
JVASP-101871,SnH26C14O4,-0.27779,4.737,na,0.1043,,,,,
JVASP-106893,RbFeO2,-1.5764,0.111,na,0.0,,,,,
JVASP-101813,H4C3O2,-0.47311,4.802,na,0.1917,,,,,
JVASP-102326,SiAg3,0.19498,0.0,0.0,0.1962,,,,,
JVASP-14954,HfBe2,-0.1702,0.0,0.0,0.0522,,,,,
JVASP-102663,Ti2NiPd,-0.44574,0.0,na,0.0469,,,,,
JVASP-107226,TiGaCu2,-0.23928,0.0,0.0,0.0,,,,,
JVASP-106783,LuGaCoO4,-2.33513,0.118,na,0.0889,,,,,
JVASP-50832,Pr3GaO6,-3.21492,3.812,na,0.0,,,,,
JVASP-105503,Ga2Ag2TeSe3,-0.38409,0.122,1.156,0.0,,,,,
JVASP-103738,HfMnN2,-1.10324,0.0,na,0.1434,,,,,
JVASP-105274,Tm3Tl,-0.15984,0.0,na,0.0419,,,,,
JVASP-104908,V3Cr3Si2,-0.40856,0.0,na,0.0,,,,,
JVASP-101690,TaTi,0.04701,0.0,na,0.047,,,,,
JVASP-15032,TbIr2,-0.86771,0.0,0.0,0.0,,,,,
JVASP-107112,K2AlInI6,-0.91501,0.736,0.926,0.1,,,,,
JVASP-2574,RbCuO2,-1.13576,0.931,na,0.0,,,,,
JVASP-14996,CoSb,-0.13153,0.0,0.0,0.0,,,,,
JVASP-105050,TbNa2LiCl6,-1.98306,3.89,na,0.1463,,,,,
JVASP-105590,VBO4,-2.43358,2.772,na,0.0251,,,,,
JVASP-18634,ErBiPt,-1.04403,0.0,0.0,0.0,,,,,
JVASP-107173,Er2CuPd,-0.65328,0.0,na,0.0004,,,,,
JVASP-104580,Hf3Sn,-0.2436,0.0,0.0,0.0013,,,,,
JVASP-103809,H3CN,-0.05473,4.571,na,0.1782,,,,,
JVASP-107333,HoFeNi,-0.27457,0.0,na,0.0934,,,,,
JVASP-102425,Rb3PrCl6,-2.13846,4.474,na,0.0862,,,,,
JVASP-15416,Sr2RuO4,-2.36198,0.0,na,0.0,,,,,
JVASP-42468,SmFe2O4,-1.95648,0.0,na,0.2458,,,,,
JVASP-106730,SrCd4S5,-0.93874,0.862,na,0.0703,,,,,
JVASP-18601,DyInAu2,-0.7475,0.0,na,0.0,,,,,
JVASP-53544,Cr4Cu3Te8,-0.14264,0.0,na,0.0029,,,,,
JVASP-1510,RbNdTe2,-1.48243,1.288,1.837,0.0,,,,,
JVASP-15168,ErSi2Pd2,-0.86182,0.0,0.0,0.0,,,,,
JVASP-104791,TiCrO4,-2.59482,0.0,na,0.0924,,,,,
JVASP-14729,Ca,0.0,0.0,0.057,0.0,,,,,
JVASP-102619,Ge2Bi2Te5,-0.18128,0.61,0.79,0.0004,,,,,
JVASP-106611,TbTh3,-0.03741,0.0,0.0,0.0,,,,,
JVASP-100991,La2CdIn,-0.50732,0.0,na,0.0,,,,,
JVASP-15290,TmSnPd2,-0.88526,0.0,0.0,0.0,,,,,
JVASP-18909,CeRu2,-0.29141,0.0,na,0.0005,,,,,
JVASP-18507,BaNi2P4,-0.68217,0.0,na,0.0014,,,,,
JVASP-102569,Tl3Ag,0.11143,0.0,na,0.1114,,,,,
JVASP-105120,BaSrHg2,-0.50952,0.0,na,0.0,,,,,
JVASP-101582,LiSm2Al,-0.23013,0.0,na,0.0005,,,,,
JVASP-15720,SmB6,-0.47192,0.0,na,0.0,,,,,
JVASP-102327,RbBH4,-0.44418,6.022,8.608,0.0,,,,,
JVASP-106501,CdPb3,0.01903,0.0,na,0.0215,,,,,
JVASP-101143,NaSbSe2,-0.62078,0.0,0.0,0.0804,,,,,
JVASP-107057,In3SbTe2,-0.23688,0.0,na,0.0038,,,,,
JVASP-13148,Sr4Ti3O10,-3.38498,1.843,2.319,0.0,,,,,
JVASP-107385,CrO2,-1.90518,0.0,na,0.206,,,,,
JVASP-107114,K2TmCuCl6,-1.86408,2.459,na,0.0058,,,,,
JVASP-19825,DyCd,-0.3441,0.0,0.0,0.0,,,,,
JVASP-2577,RbAuO2,-0.91262,1.566,1.978,0.0,,,,,
JVASP-105356,V2CN,-0.81902,0.0,na,0.1127,,,,,
JVASP-102460,Ca2TlZn,-0.43986,0.0,0.0,0.0,,,,,
JVASP-106669,K2CoF6,-2.45753,0.0,1.422,0.0,,,,,
JVASP-101814,H5C3SN,-0.06227,2.356,na,0.1092,,,,,
JVASP-101955,CdH8C6O4,-0.50782,3.724,na,0.1226,,,,,
JVASP-16002,LaTiO3,-3.45319,0.0,3.5,0.0177,,,,,
JVASP-13867,Na2GeF6,-2.7671,5.688,8.948,0.0443,,,,,
JVASP-105591,NbVO4,-2.57648,0.0,na,0.0671,,,,,
JVASP-103586,Tb3Ac,0.05374,0.0,na,0.0566,,,,,
JVASP-106465,Rb2LiTiF6,-3.29557,0.0,0.567,0.0,,,,,
JVASP-104957,InCuTe2,-0.25307,0.0,0.32,0.0,,,,,
JVASP-103937,ZnH20C12O4,-0.34583,4.738,na,0.083,,,,,
JVASP-102827,Mn2CuN2,-0.17011,0.0,na,0.1818,,,,,
JVASP-15330,DySi2Ru2,-0.84693,0.0,0.0,0.0,,,,,
JVASP-103638,Tm3Sc,0.00512,0.0,na,0.0053,,,,,
JVASP-18527,Na3Hg,-0.10723,0.0,na,0.0239,,,,,
JVASP-15214,ZrNi2Sb,-0.5531,0.0,0.0,0.0,,,,,
JVASP-106731,SrNdCoO4,-2.64213,0.0,na,0.0,,,,,
JVASP-102664,Ti2Te3,-0.75324,0.0,na,0.0,,,,,
JVASP-103739,AlCoF5,-2.87602,0.184,na,0.0437,,,,,
JVASP-106612,Ti2GaRe,-0.44015,0.0,na,0.0062,,,,,
JVASP-105121,BaSr3,-0.03267,0.0,na,0.0,,,,,
JVASP-107280,TiFe2Se4,-0.5959,0.0,na,0.074,,,,,
JVASP-103990,SnH4C2Cl2,-0.32624,2.565,na,0.1519,,,,,
JVASP-100992,LiNpRh2,-0.32728,0.0,na,0.0289,,,,,
JVASP-104682,TcW,0.09729,0.0,na,0.3757,,,,,
JVASP-107005,LiAs3,-0.00268,0.0,0.0,0.2638,,,,,
JVASP-107174,CuPbO3,-0.68249,0.0,na,0.1783,,,,,
JVASP-43152,Li2Mn2CoO6,-1.79537,0.0,na,0.1217,,,,,
JVASP-103685,SrCa2Si6,-0.41742,0.0,0.0,0.0002,,,,,
JVASP-2472,CdPtF6,-1.76782,2.444,2.698,0.0,,,,,
JVASP-4128,AcBrO,-3.19838,4.276,5.201,0.0,,,,,
JVASP-15468,BaFe2P2,-0.88575,0.0,na,0.0,,,,,
JVASP-105277,U3Zn,0.11256,0.0,na,0.1319,,,,,
JVASP-101872,SnH6C4O4,-0.57702,3.057,4.361,0.2163,,,,,
JVASP-102426,Rb3ScF6,-3.4663,6.256,8.192,0.0263,,,,,
JVASP-104633,Ca3SiO,-1.6727,0.12,0.463,0.0003,,,,,
JVASP-104115,H8C15S3,0.09991,0.706,na,0.1847,,,,,
JVASP-102716,MgGeP2,-0.33043,0.185,0.935,0.0542,,,,,
JVASP-2367,CdSiP2,-0.21083,1.461,2.017,0.0,,,,,
JVASP-102775,Cr6BC3,-0.2008,0.0,na,0.0156,,,,,
JVASP-106894,LiMnOF2,-2.47055,0.63,na,0.0,,,,,
JVASP-54955,KMnAg3C6N6,0.16612,0.0,0.0,0.3133,,,,,
JVASP-107386,MnO2,-1.75636,0.705,na,0.0486,,,,,
JVASP-106784,LiCo2O3,-1.31191,0.0,na,0.1432,,,,,
JVASP-101641,RbTlO,-1.11919,1.526,2.27,0.0,,,,,
JVASP-101917,ZnH12C8O4,-0.44633,4.476,na,0.1036,,,,,
JVASP-44055,VOF2,-2.81705,0.0,na,0.0338,,,,,
JVASP-19025,PPdSe,-0.3608,0.716,na,0.0046,,,,,
JVASP-43896,Na3CoO3,-1.41122,0.58,na,0.0632,,,,,
JVASP-104732,KTiO2F,-3.04407,0.897,1.572,0.0843,,,,,
JVASP-14955,Al3V,-0.28539,0.0,0.0,0.0,,,,,
JVASP-107115,K2NdCuCl6,-1.81945,2.2,na,0.087,,,,,
JVASP-104909,TiOF2,-3.32659,2.037,2.696,0.0787,,,,,
JVASP-104792,LiMnF3,-2.64193,1.824,2.438,0.0754,,,,,
JVASP-103640,Zr3Rh,-0.28308,0.0,na,0.1838,,,,,
JVASP-14903,AlCr2B2,-0.42838,0.0,na,0.0,,,,,
JVASP-50489,Li6MnS4,-1.30995,1.801,na,0.0295,,,,,
JVASP-104153,H4C4SO,-0.09262,0.597,na,0.2617,,,,,
JVASP-106504,CePrMg2,-0.03381,0.0,na,0.0566,,,,,
JVASP-102620,DyPd2Pb,-0.71884,0.0,0.0,0.024,,,,,
JVASP-107175,DyZr,0.08637,0.0,na,0.0888,,,,,
JVASP-105208,MgGe3,0.0957,0.0,0.0,0.2257,,,,,
JVASP-101583,Lu3Sn,-0.37356,0.0,na,0.0784,,,,,
JVASP-4131,Tb4Se3N2,-1.94019,1.397,1.997,0.0,,,,,
JVASP-107334,Ho3Mn3Ga2Si,-0.32764,0.0,na,0.1346,,,,,
JVASP-50383,Li3Nb6O11,-2.42722,0.0,na,0.1029,,,,,
JVASP-11974,NbCo3,-0.11594,0.0,na,0.078,,,,,
JVASP-2094,Th3N4,-1.82375,1.659,na,0.0,,,,,
JVASP-102665,ThUSe2,-1.31904,0.0,na,0.0569,,,,,
JVASP-102427,Rb2LiTaF6,-2.92488,0.0,1.719,0.1887,,,,,
JVASP-101815,H6C10S2O,-0.00595,1.772,na,0.2101,,,,,
JVASP-105054,Rb2GaHgBr6,-1.10773,0.0,na,0.0095,,,,,
JVASP-103686,SmTmS2,-2.1392,0.0,0.0,0.0,,,,,
JVASP-106395,Rb2AsAuCl6,-1.14807,0.056,na,0.0221,,,,,
JVASP-104543,LiTiV2O6,-2.66625,0.0,na,0.0907,,,,,
JVASP-102521,LiMg,-0.11439,0.0,0.0,0.0,,,,,
JVASP-1444,CrAgSe2,-0.3325,0.288,na,0.0298,,,,,
JVASP-101642,La3SnC,-0.60064,0.0,na,0.0,,,,,
JVASP-18459,HfH2,-0.49662,0.0,0.0,0.0,,,,,
JVASP-107060,InCuSeS,-0.49073,0.03,0.242,0.0,,,,,
JVASP-106895,Y3Cd,-0.13438,0.0,na,0.0614,,,,,
JVASP-105433,Nb2Pd,-0.24009,0.0,0.0,0.0,,,,,
JVASP-102828,AlCrF5,-3.11307,0.0,na,0.0816,,,,,
JVASP-104683,ThPbI6,-1.03387,1.256,1.699,0.0021,,,,,
JVASP-106732,SrLaGaO4,-2.98787,3.482,na,0.0,,,,,
JVASP-102461,CaYCd2,-0.4318,0.0,0.0,0.0,,,,,
JVASP-107387,K2CoF4,-2.52905,0.0,na,0.0,,,,,
JVASP-13155,AlBiBr6,-0.94691,2.579,3.528,0.0,,,,,
JVASP-106841,Ca2TlCd,-0.49107,0.0,0.0,0.0,,,,,
JVASP-51199,TlCoW,1.11026,0.0,na,1.3458,,,,,
JVASP-16003,Al2O,-0.05395,0.0,0.0,1.7868,,,,,
JVASP-101144,NaLiMnS2,-0.82784,0.0,0.165,0.2142,,,,,
JVASP-106614,YbPmCu2,-0.3355,0.0,na,0.0,,,,,
JVASP-13060,IF3,-1.41455,2.001,4.484,0.0,,,,,
JVASP-42193,Mn3O5F,-1.93582,0.0,na,0.0,,,,,
JVASP-106556,Mg3Hg,-0.12158,0.0,na,0.0043,,,,,
JVASP-19826,MnAl,-0.22066,0.0,0.0,0.0,,,,,
JVASP-106466,MgZn3S4,-1.06585,2.241,3.661,0.0105,,,,,
JVASP-102717,MgCdTe2,-0.69155,1.334,2.224,0.0,,,,,
JVASP-2949,Ba2ZnN2,-0.60553,0.443,1.082,0.0,,,,,
JVASP-4134,Ca3BN3,-1.31651,0.727,1.741,0.0,,,,,
JVASP-101992,H9C11,0.28678,3.439,na,0.4069,,,,,
JVASP-51232,LaBeOs2,0.61381,0.0,na,0.7548,,,,,
JVASP-106671,Ba2PuZnO6,-2.83753,0.0,na,0.0,,,,,
JVASP-105357,VCr2Si6,-0.2383,0.0,na,0.0109,,,,,
JVASP-49808,LuAlO3,-3.6076,5.437,7.108,0.063,,,,,
JVASP-107447,Ho2CdHg,-0.37055,0.0,0.0,0.0,,,,,
JVASP-15765,SmRh3C,-0.46881,0.0,na,0.0,,,,,
JVASP-18674,Tl2Au,-0.03486,0.0,na,0.0,,,,,
JVASP-107227,Tl3Ge,0.13607,0.0,na,0.1361,,,,,
JVASP-104910,U2NiSb4,-0.37433,0.0,na,0.0,,,,,
JVASP-19883,ZrSi,-0.87059,0.0,na,0.0,,,,,
JVASP-104581,Ho2CuPt,-0.85831,0.0,0.0,0.0028,,,,,
JVASP-106505,Ce3Hg,-0.13121,0.0,na,0.0,,,,,
JVASP-102429,CaNiO2,-2.08452,0.0,na,0.0,,,,,
JVASP-103876,SnH12C7O6,-0.58373,3.636,na,0.1243,,,,,
JVASP-28644,MoWSe3S,-0.65065,0.461,na,0.1195,,,,,
JVASP-101873,SnH14C8O4,-0.38983,4.541,na,0.1293,,,,,
JVASP-18804,BaAl2Ge2,-0.46491,0.0,na,0.0251,,,,,
JVASP-101145,Na3BrCl2,-1.863,4.669,na,0.006,,,,,
JVASP-107281,Tc3Pt,-0.08626,0.0,na,0.1798,,,,,
JVASP-1903,ErNiSb,-0.92698,0.244,0.274,0.0,,,,,
JVASP-105055,Rb2DyCuCl6,-1.90313,2.539,na,0.0,,,,,
JVASP-106897,Na2LaCuCl6,-1.63792,1.176,na,0.2527,,,,,
JVASP-103740,SrMn2BiO6,-2.07222,0.0,na,0.0,,,,,
JVASP-102621,UPd2Pb,-0.28355,0.0,na,0.0939,,,,,
JVASP-107500,TmBiPt,-1.04263,0.0,0.0,0.0,,,,,
JVASP-18635,HoBiPt,-1.04903,0.0,0.0,0.0,,,,,
JVASP-107117,K2InAgF6,-2.46946,1.446,3.676,0.0,,,,,
JVASP-102328,NdSnAu,-0.6403,0.0,0.0,0.2141,,,,,
JVASP-15803,BPd2,-0.23085,0.0,na,0.0,,,,,
JVASP-1543,RbDyO2,-2.96938,3.655,5.476,0.0,,,,,
JVASP-106468,CuPb2O2F2,-1.39469,0.0,na,0.2459,,,,,
JVASP-104733,InGaSe2,-0.54546,0.0,0.0,0.0,,,,,
JVASP-104848,InGa3,0.04151,0.0,0.0,0.0428,,,,,
JVASP-14956,TlSn,0.04115,0.0,na,0.0411,,,,,
JVASP-102522,LiNd2Rh,-0.38405,0.0,0.0,0.0373,,,,,
JVASP-102570,YbSmAu2,-1.00121,0.0,0.0,0.0,,,,,
JVASP-14730,PrZn,-0.35309,0.0,0.0,0.0,,,,,
JVASP-13157,Pr4Se3N2,-1.82767,1.4,na,0.0,,,,,
JVASP-104634,Nd2MgSi2,-0.68577,0.0,0.0,0.0,,,,,
JVASP-104959,H4Pd3,0.0928,0.0,na,0.1064,,,,,
JVASP-2475,K2HgO2,-1.17244,2.251,3.378,0.0,,,,,
JVASP-101585,MgVRh2,-0.4476,0.0,na,0.0022,,,,,
JVASP-13061,Bi3Se4Br,-0.45292,1.056,1.625,0.0135,,,,,
JVASP-15053,BeCo,-0.31605,0.0,na,0.0,,,,,
JVASP-106952,InRh3,-0.13743,0.0,0.0,0.0464,,,,,
JVASP-102829,SmFeAsO,-1.90313,0.0,na,0.0,,,,,
JVASP-107061,Hf2Te3,-0.78285,0.0,na,0.0002,,,,,
JVASP-103938,MgH2C3O4,-1.23044,4.402,na,0.1666,,,,,
JVASP-107335,In2Ni6C,-0.07048,0.0,na,0.0101,,,,,
JVASP-15065,YbSn,-0.73424,0.0,na,0.0,,,,,
JVASP-16108,CeAsPd,-1.11406,0.0,na,0.0,,,,,
JVASP-104684,Tb4CuPt3,-1.11792,0.0,0.0,0.0,,,,,
JVASP-107448,Ho2ZnTc,-0.22987,0.0,na,0.0514,,,,,
JVASP-106734,SrCa,-0.00025,0.0,0.033,0.0172,,,,,
JVASP-107502,RbSrCl3,-2.35813,4.619,na,0.0544,,,,,
JVASP-101816,H8C12SO,-0.00979,1.966,na,0.2002,,,,,
JVASP-104793,LiCo3OF5,-1.82332,0.0,na,0.0925,,,,,
JVASP-105212,MgSc2Ga,-0.36726,0.0,0.0,0.0188,,,,,
JVASP-19866,TmAl2,-0.5164,0.0,0.0,0.0,,,,,
JVASP-15369,SrAs2Pd2,-0.76928,0.0,0.0,0.0,,,,,
JVASP-104911,TmMnIn,-0.04296,0.0,na,0.2543,,,,,
JVASP-104546,Pr,-0.01298,0.0,na,0.0,,,,,
JVASP-102667,Th2Si3Ir,-0.91887,0.0,0.0,0.0,,,,,
JVASP-107557,Hf4CuSi3,-0.62951,0.0,0.0,0.034,,,,,
JVASP-101956,CdH10C7O4,-0.45722,3.876,na,0.1113,,,,,
JVASP-107388,CoPtF6,-1.62418,0.25,na,0.0,,,,,
JVASP-105505,GaNi4Ge3,-0.2149,0.0,0.0,0.0924,,,,,
JVASP-106673,Ce2YSi2,-0.64325,0.0,na,0.0105,,,,,
JVASP-16004,AlO,-1.41631,0.0,1.645,1.3448,,,,,
JVASP-42470,CrCuO2,-1.57738,1.036,na,0.006,,,,,
JVASP-15688,HoNi2B2C,-0.56353,0.0,na,0.0,,,,,
JVASP-14760,CaTl3,-0.26974,0.0,0.0,0.0,,,,,
JVASP-57319,Ba2YFe3O8,-2.3592,0.0,na,0.0148,,,,,
JVASP-18436,ZrTi2O,-1.17763,0.0,na,0.3719,,,,,
JVASP-102718,LiErS2,-1.96157,0.341,1.164,0.0597,,,,,
JVASP-102523,LiPr3,0.11555,0.0,na,0.1255,,,,,
JVASP-106506,Ce2SnHg,-0.44654,0.0,na,0.0,,,,,
JVASP-5212,CS2NClO2,-0.33462,2.58,3.103,0.2825,,,,,
JVASP-103688,Pr2CoGe3,-0.58656,0.0,na,0.1406,,,,,
JVASP-15627,TmCo3B2,-0.54694,0.0,na,0.0,,,,,
JVASP-101147,MnGaCu2Se4,-0.39352,0.0,0.0,0.0172,,,,,
JVASP-106842,BaSrHf2O6,-3.6602,3.933,na,0.007,,,,,
JVASP-104582,HoNpRu2,-0.37621,0.0,na,0.0,,,,,
JVASP-103810,H7C8NO,-0.11275,3.425,na,0.1666,,,,,
JVASP-107228,Tm2PtRh,-1.18254,0.0,0.0,0.0,,,,,
JVASP-106953,KDyO3,-2.10227,0.0,na,0.3857,,,,,
JVASP-11975,Al3Ni,-0.43182,0.0,na,0.0,,,,,
JVASP-102462,YbCaCd2,-0.46101,0.0,0.0,0.0,,,,,
JVASP-105061,Rb2AsAuBr6,-0.9541,0.0,na,0.0007,,,,,
JVASP-103995,SnH8C4Cl2,-0.25179,3.584,na,0.1056,,,,,
JVASP-22688,Mg2H6Ru,-0.34381,3.128,3.154,0.0,,,,,
JVASP-3246,CdGa2Te4,-0.35636,0.97,1.877,0.0,,,,,
JVASP-104547,MgCoCu3Se4,-0.29992,0.0,na,0.1463,,,,,
JVASP-28646,MoWSe3S,-0.65072,0.484,na,0.1194,,,,,
JVASP-43158,Li2MnFe3O8,-1.77311,0.0,na,0.0151,,,,,
JVASP-106469,TaTiO4,-3.08122,0.0,na,0.0,,,,,
JVASP-101918,ZnH12C8O4,-0.44626,4.473,na,0.1037,,,,,
JVASP-18718,Th2Hg,-0.07725,0.0,na,0.0,,,,,
JVASP-2074,RbAu,-0.41168,0.499,0.958,0.0,,,,,
JVASP-102719,LiPrS2,-1.87554,0.27,na,0.0949,,,,,
JVASP-107282,Tb2SiGe,-0.84875,0.0,0.0,0.0,,,,,
JVASP-103641,Yb2PbAu2,-0.92799,0.0,na,0.0,,,,,
JVASP-2478,KZnF3,-2.73294,4.16,6.603,0.0,,,,,
JVASP-12910,SrH4O3,-1.60199,4.546,6.861,0.0,,,,,
JVASP-107389,KRb2CoF6,-2.66008,1.366,na,0.0,,,,,
JVASP-104913,Tl2FeCu3Se4,-0.2574,0.0,na,0.0174,,,,,
JVASP-15766,TbPPt,-1.37256,0.0,na,0.0,,,,,
JVASP-44478,Li2Mn3SnO8,-1.95377,0.0,na,0.0465,,,,,
JVASP-101586,Mg2NiIr,-0.36172,0.0,0.0,0.0,,,,,
JVASP-107006,PrGe2Pd2,-0.82893,0.0,0.0,0.0,,,,,
JVASP-105359,TmAlNi4,-0.58749,0.0,na,0.0,,,,,
JVASP-14687,ErPb3,-0.24339,0.0,0.0,0.0139,,,,,
JVASP-15066,ScP,-1.60251,0.0,0.0,0.0,,,,,
JVASP-106507,Ce2ZnIn,-0.294,0.0,na,0.0339,,,,,
JVASP-101817,H10C14O,-0.04214,2.282,na,0.1633,,,,,
JVASP-107176,ErAl3,-0.44236,0.0,na,0.0057,,,,,
JVASP-104687,TaMn2FeO6,-1.97259,0.0,na,0.0974,,,,,
JVASP-101148,MnVCr2Te4,-0.02867,0.0,na,0.1809,,,,,
JVASP-104154,H8C12SO,-0.02441,1.872,na,0.1856,,,,,
JVASP-16134,NaTeAu,-0.52972,0.101,na,0.0,,,,,
JVASP-106785,Li2InSi,-0.07769,0.0,na,0.1924,,,,,
JVASP-15215,MgAgAs,-0.23538,0.0,0.0,0.16,,,,,
JVASP-104734,LaCeGe4Pt4,-0.95008,0.0,na,0.0,,,,,
JVASP-101874,SnH22C12O4,-0.31014,4.372,na,0.1035,,,,,
JVASP-102571,YbSnO3,-2.38433,1.879,3.849,0.1387,,,,,
JVASP-19827,TmSi2,-0.40547,0.0,0.0,0.1221,,,,,
JVASP-16214,HfP,-1.33396,0.0,na,0.0,,,,,
JVASP-106615,Tm2CuRh,-0.68375,0.0,na,0.0,,,,,
JVASP-106843,BaSiAu,-0.64437,0.0,na,0.0,,,,,
JVASP-51160,TiTl2W,0.66095,0.0,na,0.8002,,,,,
JVASP-107503,Na2YF6,-3.24424,0.0,na,0.0162,,,,,
JVASP-50834,CeTh3O8,-4.04805,2.056,na,0.0317,,,,,
JVASP-15291,ZrAlNi2,-0.63623,0.0,0.0,0.0,,,,,
JVASP-104635,UMn2SiC,-0.35662,0.0,na,0.0,,,,,
JVASP-107118,K2AgAuF6,-1.88422,0.0,na,0.0711,,,,,
JVASP-42474,FeS,-0.35023,0.0,na,0.2311,,,,,
JVASP-103690,Nd2CuSi3Rh2,-0.89534,0.0,na,0.0,,,,,
JVASP-106674,Tb2CI,-0.87962,0.0,na,0.0,,,,,
JVASP-1195,ZnO,-1.59197,0.965,2.473,0.0,,,,,
JVASP-49753,HoHO2,-2.8022,4.832,7.099,0.0336,,,,,
JVASP-105068,Rb2YAgI6,-1.24685,2.559,na,0.0205,,,,,
JVASP-104962,Er2CuSi3,-0.65879,0.0,0.0,0.0,,,,,
JVASP-106954,La2MgAl,-0.3208,0.0,na,0.0,,,,,
JVASP-104116,H6C10S,0.0646,0.849,na,0.1603,,,,,
JVASP-19897,PuP,-1.42235,0.0,0.0,0.0,,,,,
JVASP-107336,Ho2Ga3Ni,-0.6725,0.0,0.0,0.0,,,,,
JVASP-102464,CaSm3,0.07963,0.0,na,0.0838,,,,,
JVASP-107283,Tb3Ce,0.03646,0.0,na,0.0365,,,,,
JVASP-106470,LiAgF2,-2.12484,1.889,2.86,0.0,,,,,
JVASP-14731,HoSe,-1.78523,0.0,1.379,0.0,,,,,
JVASP-106898,Na2GaHgBr6,-0.83629,0.0,na,0.2167,,,,,
JVASP-103642,CaTlBr3,-1.6997,3.789,na,0.0,,,,,
JVASP-104583,KCd3,-0.07547,0.0,0.0,0.0,,,,,
JVASP-102668,TeAs2,0.19689,0.0,0.0,0.2031,,,,,
JVASP-102431,CaAl2Sn2,-0.31408,0.0,0.0,0.0101,,,,,
JVASP-52279,Bi2OF4,-2.3256,4.185,5.574,0.0193,,,,,
JVASP-1546,RbErO2,-3.00308,3.706,5.366,0.0,,,,,
JVASP-104548,CdCu3NiSe4,-0.16421,0.0,na,0.1139,,,,,
JVASP-101149,MnCoSnRh,-0.17841,0.0,na,0.043,,,,,
JVASP-107558,H3Pd4,-0.01773,0.0,na,0.0,,,,,
JVASP-106398,ThInRh2,-0.71963,0.0,0.0,0.0,,,,,
JVASP-105278,YBi3,-0.35853,0.0,na,0.1286,,,,,
JVASP-102329,Na2TlHg,-0.16667,0.0,0.0,0.0,,,,,
JVASP-103940,MgH2C3O4,-1.26684,4.361,na,0.1302,,,,,
JVASP-15417,ThSi2Pt2,-0.96951,0.0,0.0,0.1252,,,,,
JVASP-107231,UMn3,0.10287,0.0,na,0.1601,,,,,