jid,formula,formation_energy_per_atom,optb88vdw_bandgap,mbj_bandgap,ehull,spacegroup_number,natoms,volume,bulk_modulus_kv,shear_modulus_gv
JVASP-86677,La2AlNi9,-0.42156,0.0,na,0.0,,,,,
JVASP-70669,SrBeBi,-0.32029,0.0,0.479,0.2768,,,,,
JVASP-70818,LaBe2Tl,0.39915,0.0,na,0.6236,,,,,
JVASP-15007,Mn3As,0.01935,0.0,na,0.1222,,,,,
JVASP-85361,FeBiO3,-1.36098,0.0,na,0.0457,,,,,
JVASP-5185,CCl2F2,-0.93936,5.732,6.88,0.0,,,,,
JVASP-86355,LaCo5,-0.04324,0.0,na,0.0409,,,,,
JVASP-71432,BeGeTe2,0.36792,0.0,na,0.6346,,,,,
JVASP-71763,Be2VCd,0.26266,0.0,na,0.4169,,,,,
JVASP-70135,KBe2Hg,0.89133,0.0,0.0,0.9814,,,,,
JVASP-71287,Be2VCl,0.36838,0.0,0.0,1.0418,,,,,
JVASP-96693,ICl,-0.13912,1.592,na,0.001,,,,,
JVASP-3306,Si4P4Ru,-0.35279,1.523,1.741,0.0,,,,,
JVASP-92803,LaFeO3,-2.63023,0.0,na,0.043,,,,,
JVASP-70997,BeIrSe2,0.08721,0.0,na,0.66,,,,,
JVASP-71246,Be2CoBr,0.30029,0.0,na,0.9037,,,,,
JVASP-70592,Be2CdBr,0.92174,0.0,0.0,1.325,,,,,
JVASP-75646,TiAsAu,0.01439,0.0,0.0,0.6394,,,,,
JVASP-44285,Fe3O4F2,-1.62265,0.0,na,0.0802,,,,,
JVASP-70311,SrBeIn,-0.08475,0.0,na,0.2773,,,,,
JVASP-86501,Ti2SbP,-0.92825,0.0,na,0.0,,,,,
JVASP-69838,NaMnBe2,0.2762,0.0,na,0.4556,,,,,
JVASP-67905,BeV2Ge,-0.07209,0.0,0.0,0.217,,,,,
JVASP-71327,HfBe2Mo,-0.02181,0.0,na,0.206,,,,,
JVASP-49959,TbSi2Rh3,-0.95444,0.0,na,0.0,,,,,
JVASP-71552,Be2MoPt,-0.32197,0.0,na,0.0913,,,,,
JVASP-92250,Li3SbS4,-0.94829,2.026,2.857,0.0155,,,,,
JVASP-96464,Sr2NiMoO6,-2.40805,0.0,na,0.0717,,,,,
JVASP-90811,SmClO2,-2.00182,0.0,na,0.4568,,,,,
JVASP-1345,YbTe,-1.75446,1.486,2.545,0.0,,,,,
JVASP-69897,Be2MoBr,0.58565,0.0,na,1.1522,,,,,
JVASP-91468,Pr2Ir2O7,-2.16417,0.0,na,0.0,,,,,
JVASP-70958,Ca2BeBi,0.01597,0.0,0.0,0.6671,,,,,
JVASP-70853,TiBeW2,-0.29616,0.0,na,0.0686,,,,,
JVASP-71396,BeTcSn,0.51135,0.0,na,0.6209,,,,,
JVASP-71172,CaBeGa2,-0.02091,0.0,na,0.4174,,,,,
JVASP-71136,BePdRu2,-0.15256,0.0,0.0,0.1276,,,,,
JVASP-75874,LaFeAs,-0.42908,0.0,na,0.6629,,,,,
JVASP-75759,Hg2AsP,0.61289,0.0,na,0.6129,,,,,
JVASP-71433,HfBe2Mo,0.31933,0.0,na,0.5472,,,,,
JVASP-91398,BaNi9As5,-0.43369,0.0,na,0.0,,,,,
JVASP-93118,LaMg6W,0.24006,0.0,na,0.3754,,,,,
JVASP-68933,WS2,-0.90944,0.0,0.0,0.0862,,,,,
JVASP-70774,BeCoTe2,0.1509,0.0,0.0,0.447,,,,,
JVASP-69584,Be2InCl,0.73806,0.0,na,1.299,,,,,
JVASP-67962,BeGaW2,-0.00727,0.0,0.0,0.3078,,,,,
JVASP-43817,TiV4CuO12,-2.39389,0.0,na,0.0531,,,,,
JVASP-75647,LiAsP2,0.29312,0.0,na,0.6343,,,,,
JVASP-71068,KBe2Bi,0.4353,0.0,na,0.656,,,,,
JVASP-71472,BePtSe2,-0.02129,0.0,na,0.5927,,,,,
JVASP-71289,BeTe2Rh,-0.03919,0.0,na,0.3906,,,,,
JVASP-106119,CaMgS2,-1.97871,2.773,3.656,0.0348,,,,,
JVASP-69898,TiBeP,0.11392,0.0,na,0.9561,,,,,
JVASP-87099,AsF5,-2.02128,4.528,6.436,0.0,,,,,
JVASP-92736,SrSb2Ru2,-0.40518,0.0,na,0.0366,,,,,
JVASP-14661,BaGa4,-0.47563,0.0,na,0.0,,,,,
JVASP-70597,Be2VRe,-0.05412,0.0,na,0.2545,,,,,
JVASP-92439,NpO2F2,-3.1546,0.0,na,0.0,,,,,
JVASP-75796,CdCo2As,0.51677,0.0,na,0.6579,,,,,
JVASP-44009,Fe6O5F7,-1.74974,0.0,na,0.1241,,,,,
JVASP-70230,Be2NiCl,0.34707,0.0,na,1.1525,,,,,
JVASP-106037,MgIn2,-0.04675,0.0,na,0.0311,,,,,
JVASP-60762,CoH2SeO4,-0.87253,0.046,0.603,0.0931,,,,,
JVASP-15267,ScCo2Sn,-0.41583,0.0,0.0,0.0,,,,,
JVASP-70998,KBe2Te,0.73121,0.0,0.0,1.255,,,,,
JVASP-93261,KAlH3,-0.11134,0.0,na,0.1835,,,,,
JVASP-70886,LiBeGa4,0.27137,0.0,na,0.4242,,,,,
JVASP-71591,BeReRh,0.00829,0.0,na,0.4077,,,,,
JVASP-70061,MnBe2Tl,0.58789,0.0,0.0,0.7642,,,,,
JVASP-70920,BeMoOs2,0.01218,0.0,0.0,0.1231,,,,,
JVASP-70672,Be2CoRh,-0.42682,0.0,na,0.0308,,,,,
JVASP-75445,B2AsBr,2.01719,0.0,na,2.2647,,,,,
JVASP-71247,Be2TlV,0.46273,0.0,0.0,0.6144,,,,,
JVASP-71434,TiBeNb,0.2692,0.0,na,0.3949,,,,,
JVASP-71508,BeGaP2,0.44177,0.0,na,0.7433,,,,,
JVASP-70448,Be2CdSn,0.44282,0.0,na,0.4453,,,,,
JVASP-75686,SbAsOs,0.21863,0.0,0.0,0.3145,,,,,
JVASP-69587,Be2ReHg,0.49129,0.0,na,0.7601,,,,,
JVASP-70740,NaBeV2,0.43317,0.0,na,0.5121,,,,,
JVASP-70959,Li2BeCo,0.02975,0.0,na,0.1882,,,,,
JVASP-75760,TlAsRh,0.07043,0.0,na,0.3539,,,,,
JVASP-75838,Mo2AsPd,0.33904,0.0,na,0.5313,,,,,
JVASP-71102,LiBeSi2,0.32841,0.0,na,0.4274,,,,,
JVASP-48442,MnOF,-2.09493,0.006,na,0.0,,,,,
JVASP-76201,TbMgSn,-0.6017,0.0,na,0.0,,,,,
JVASP-85706,Eu2MgH6,-0.36453,0.0,na,0.0706,,,,,
JVASP-92307,GaCu2,0.05121,0.0,na,0.1209,,,,,
JVASP-71709,BeRuRh2,-0.04325,0.0,0.0,0.2563,,,,,
JVASP-93316,MgCd2,-0.01903,0.0,na,0.0671,,,,,
JVASP-70372,Be2IrOs,-0.30305,0.0,na,0.0063,,,,,
JVASP-18701,DyZn5,-0.28273,0.0,na,0.0227,,,,,
JVASP-94134,Mg6CoSi,0.12254,0.0,na,0.2469,,,,,
JVASP-69757,YBeFe,-0.02179,0.0,na,0.1448,,,,,
JVASP-105615,K3SmCl6,-2.11535,4.635,na,0.0285,,,,,
JVASP-94083,BaMg6V,0.33116,0.0,na,0.4097,,,,,
JVASP-18517,Ca2AuN,-1.00223,0.0,na,0.0,,,,,
JVASP-71173,Be2InSb,0.73334,0.0,na,0.7802,,,,,
JVASP-75648,Mo2AsOs,0.35585,0.0,na,0.4897,,,,,
JVASP-69839,Mg2BeCd2,0.45217,0.0,na,0.5456,,,,,
JVASP-69382,Be2CoCu,-0.0636,0.0,na,0.1836,,,,,
JVASP-68105,BeTc2Ge,0.12783,0.0,0.0,0.2622,,,,,
JVASP-92691,MgBr2O2,-0.2638,0.0,na,0.9524,,,,,
JVASP-70819,BeSn2Ge,0.37169,0.0,na,0.3717,,,,,
JVASP-69967,Be2VRu,-0.1068,0.0,0.0,0.2035,,,,,
JVASP-19861,SmRh2,-0.73243,0.0,0.0,0.0,,,,,
JVASP-42285,Co6O7F5,-1.38063,0.0,na,0.0367,,,,,
JVASP-95026,Zr2Sb3Pd,-0.60111,0.0,na,0.0304,,,,,
JVASP-71397,Be2InNi,0.08231,0.0,0.0,0.3413,,,,,
JVASP-70312,TaBeIr,-0.07528,0.0,na,0.4313,,,,,
JVASP-17332,YBiO3,-1.44833,0.0,na,1.1639,,,,,
JVASP-70062,Be2ZnRe,0.19119,0.0,na,0.46,,,,,
JVASP-91604,Sr3CaO4,-3.05072,3.32,na,0.0368,,,,,
JVASP-106193,TbI3,-1.33963,1.688,2.566,0.0,,,,,
JVASP-91843,LaAgSb2,-0.75797,0.0,na,0.0,,,,,
JVASP-92378,CaP2Ru2,-0.91634,0.0,na,0.0,,,,,
JVASP-75446,Mo2AsRh,0.23101,0.0,na,0.4678,,,,,
JVASP-71436,CaBe2Co,0.08967,0.0,na,0.3411,,,,,
JVASP-94230,NaMg6Co,0.05615,0.0,na,0.0692,,,,,
JVASP-69669,Be2RhBr,0.43141,0.0,na,1.1626,,,,,
JVASP-105745,GaHg3,0.25063,0.0,na,0.2506,,,,,
JVASP-3801,RbBiF6,-2.28846,2.524,3.305,0.0,,,,,
JVASP-95953,InH3O3,-1.29036,2.994,na,0.0,,,,,
JVASP-71512,HfBe2Sn,0.29982,0.0,na,0.6009,,,,,
JVASP-71029,MgTa2Be,0.34984,0.0,0.0,0.4577,,,,,
JVASP-105820,MgPaAu2,-0.50141,0.0,na,0.0,,,,,
JVASP-105885,Zn3Ag,-0.02536,0.0,na,0.0,,,,,
JVASP-71649,BeGa2Se,0.19186,0.0,na,0.657,,,,,
JVASP-71210,BeCoHg2,0.36871,0.0,0.0,0.5267,,,,,
JVASP-70137,SrMnBe2,0.8724,0.0,na,1.0488,,,,,
JVASP-69503,MnBe2Si,-0.04242,0.0,na,0.1642,,,,,
JVASP-70887,CaBe2Si,0.36463,0.0,na,0.6905,,,,,
JVASP-92893,Mg6CdW,0.17849,0.0,na,0.2884,,,,,
JVASP-71592,KBe2P,0.54298,0.0,na,0.829,,,,,
JVASP-71248,BeReSi,0.28042,0.0,na,0.519,,,,,
JVASP-75875,HfAsPd,-0.51379,0.0,na,0.3526,,,,,
JVASP-71360,BeFeNi,-0.07537,0.0,na,0.2375,,,,,
JVASP-70519,MnBe2Ga,-0.06087,0.135,0.136,0.1341,,,,,
JVASP-75761,SiAsP2,0.69165,0.0,na,0.7908,,,,,
JVASP-105685,Rb3DyCl6,-2.16567,4.748,6.591,0.0366,,,,,
JVASP-70775,Be2SiTe,0.83294,0.0,na,1.0457,,,,,
JVASP-69590,Be2ZnPb,0.71481,0.0,na,0.7148,,,,,
JVASP-71710,KBe2Pt,0.09551,0.0,na,0.459,,,,,
JVASP-70921,BeNiPd2,-0.28817,0.0,na,0.081,,,,,
JVASP-70450,YBe2Fe,0.22813,0.0,na,0.4299,,,,,
JVASP-70676,YBe2Sb,0.17768,0.0,na,0.7962,,,,,
JVASP-92508,YWO3,-2.21034,0.0,na,0.7856,,,,,
JVASP-70999,BePRh2,-0.4301,0.0,na,0.2024,,,,,
JVASP-70960,BeTcW2,-0.18404,0.0,0.0,0.1765,,,,,
JVASP-71818,BeFe2Mo,-0.10955,0.0,0.0,0.0168,,,,,
JVASP-71175,MgZrBe2,0.06753,0.0,na,0.2117,,,,,
JVASP-69899,BeZnSi,0.3682,0.0,na,0.3698,,,,,
JVASP-71105,BeCoW2,-0.29984,0.0,na,0.1366,,,,,
JVASP-71553,CaBe2Os,-0.05505,0.0,na,0.0159,,,,,
JVASP-71765,BeCrCo2,-0.09754,0.0,0.0,0.0685,,,,,
JVASP-70741,BeCuTe2,0.08211,0.0,na,0.3118,,,,,
JVASP-75447,Tc2AsCl,0.78273,0.0,na,1.1122,,,,,
JVASP-92937,Mg6GaBi,-0.04798,0.0,na,0.0795,,,,,
JVASP-85663,HPbClO,-1.20421,3.224,4.339,0.0004,,,,,
JVASP-86560,MnClO3,-1.00964,1.72,2.093,0.0757,,,,,
JVASP-68290,BeCoNi2,-0.10516,0.0,0.0,0.1395,,,,,
JVASP-70854,Ca4BeP,0.64668,0.0,0.0,1.0873,,,,,
JVASP-92640,SrCu2Sn2,-0.38291,0.0,na,0.0,,,,,
JVASP-71328,BeTl2Ge,0.34574,0.0,na,0.3457,,,,,
JVASP-93182,KBaMg6,0.05889,0.0,na,0.1385,,,,,
JVASP-15190,TbNi2Ge2,-0.69352,0.0,na,0.0,,,,,
JVASP-71869,Be2MoP,0.37391,0.0,na,0.7198,,,,,
JVASP-15445,BaPrO3,-2.70428,0.0,na,0.2461,,,,,
JVASP-69504,Be2MoW,-0.00165,0.0,na,0.3585,,,,,
JVASP-71437,HfBe2V,0.0066,0.0,na,0.1734,,,,,
JVASP-71291,Sr2BeOs,0.20312,0.0,na,0.2242,,,,,
JVASP-71137,BeCdSi2,0.56685,0.0,na,0.5717,,,,,
JVASP-75687,KCoAs,0.4939,0.0,na,0.9016,,,,,
JVASP-86017,Li2UMo2O10,-2.52498,2.558,na,0.0,,,,,
JVASP-69969,Be2TlTe,0.67367,0.0,na,0.8852,,,,,
JVASP-75798,Fe2AsCl,0.7259,0.0,na,1.1026,,,,,
JVASP-91327,Nd2W3O12,-2.69562,1.092,na,0.1139,,,,,
JVASP-69673,Be2VGa,0.08664,0.0,0.0,0.2612,,,,,
JVASP-71211,BeZnRu4,0.65052,0.0,na,0.768,,,,,
JVASP-70821,CaBe2Re,0.43785,0.0,na,0.7108,,,,,
JVASP-1348,MnS,-0.35771,0.0,na,0.161,,,,,
JVASP-75839,SiMo2As,0.24803,0.0,0.0,0.5283,,,,,
JVASP-71398,Be2CuOs,-0.10594,0.0,na,0.0033,,,,,
JVASP-71593,Be2NbBr,0.37179,0.0,na,0.9141,,,,,
JVASP-71069,MgBeW2,0.08851,0.0,0.0,0.4035,,,,,
JVASP-75876,SnB2As,1.71204,0.0,na,1.8345,,,,,
JVASP-70233,ScBeGe,-0.62158,0.0,0.0,0.0,,,,,
JVASP-71513,BeSe2Cl,0.07059,0.0,na,0.8628,,,,,
JVASP-69383,TiBe2Re,-0.21312,0.0,na,0.1295,,,,,
JVASP-86723,LiBH2,0.1788,0.534,0.669,0.5625,,,,,
JVASP-71361,BeTl2Os,0.3895,0.0,na,0.3895,,,,,
JVASP-71473,BeSi2Cl,0.36901,0.0,na,0.931,,,,,
JVASP-93765,Er2GeRh3,-0.92529,0.0,na,0.0021,,,,,
JVASP-70681,BePPd,-0.06316,0.0,na,0.3735,,,,,
JVASP-53964,Ti3SnH,-0.38674,0.0,na,0.0,,,,,
JVASP-71249,BeTl2Ni,0.20771,0.0,0.0,0.4415,,,,,
JVASP-70742,TaBe2Pd,-0.04808,0.0,na,0.3325,,,,,
JVASP-71554,Be2SeCl,0.30515,0.0,na,1.33,,,,,
JVASP-75689,MgAsRu2,0.20884,0.0,na,0.5476,,,,,
JVASP-69902,YBeCr,0.30982,0.0,na,0.4145,,,,,
JVASP-70598,LiBe2Se,0.21023,0.0,0.0,0.9676,,,,,
JVASP-70065,Be2ZnTe,0.57554,0.0,na,0.8099,,,,,
JVASP-69840,Be2CrMo,0.09294,0.0,na,0.3139,,,,,
JVASP-87180,TbSbRh,-0.98507,0.0,na,0.0,,,,,
JVASP-69977,Be2VNi,-0.12632,0.0,0.39,0.1836,,,,,
JVASP-70523,NaLiBe2,0.61146,0.0,na,0.6224,,,,,
JVASP-75799,AsPIr2,0.63245,0.0,na,1.0642,,,,,
JVASP-69506,Be2SbPb,0.70688,0.0,na,0.7069,,,,,
JVASP-70236,Be2CdTc,0.2603,0.0,na,0.4271,,,,,
JVASP-71440,CaBe2Sb,0.26464,0.0,na,0.7227,,,,,
JVASP-70855,BeHg4Pd,0.85075,0.0,na,1.0375,,,,,
JVASP-15648,PrSi2Os2,-0.65823,0.0,0.0,0.0,,,,,
JVASP-70777,BeGaIr2,-0.28638,0.0,0.0,0.1803,,,,,
JVASP-88819,H4N2O3,-0.22978,5.258,na,0.4766,,,,,
JVASP-71399,CaMnBe2,0.20612,0.0,na,0.3867,,,,,
JVASP-92440,FeBiO3,-1.31916,0.0,na,0.0876,,,,,
JVASP-69764,Be2RhCl,0.19923,0.0,0.0,1.0893,,,,,
JVASP-72208,BeNb2Sb,0.17102,0.0,0.0,0.4359,,,,,
JVASP-71000,BeCdSb2,0.3941,0.0,na,0.413,,,,,
JVASP-93365,ZrGaCu,-0.4297,0.0,na,0.0,,,,,
JVASP-14583,ZrHg,-0.06404,0.0,na,0.021,,,,,
JVASP-42875,Ca2TlPb,-0.55854,0.0,na,0.0,,,,,
JVASP-70376,Be2TlMo,0.50054,0.0,0.0,0.7214,,,,,
JVASP-95027,Rb2S,-1.13741,2.271,na,0.0517,,,,,
JVASP-1423,AuSe,-0.07314,0.01,0.249,0.0,,,,,
JVASP-71070,Na2BeBi,0.25791,0.0,na,0.5644,,,,,
JVASP-71980,MnBeCl2,0.16113,0.0,0.0,1.2805,,,,,
JVASP-56962,CrGaCo2,-0.08974,0.0,0.0,0.0429,,,,,
JVASP-70822,BeTc2Pt,-0.24006,0.0,na,0.0998,,,,,
JVASP-71474,Be2VBr,0.45632,0.0,na,0.9709,,,,,
JVASP-71292,BeGa2Cl,0.0379,0.0,na,0.5976,,,,,
JVASP-71250,Be2NbPd,-0.28295,0.0,na,0.0915,,,,,
JVASP-75763,ZnAsRh2,0.0338,0.0,na,0.4297,,,,,
JVASP-93717,MgCd5,-0.01728,0.0,na,0.0332,,,,,
JVASP-48259,Li7FeO6,-1.91221,0.574,na,0.0534,,,,,
JVASP-71595,Be2HgP,0.36498,0.0,na,0.4941,,,,,
JVASP-71031,BeRe2Os,0.14259,0.0,0.0,0.277,,,,,
JVASP-96729,BaZn2As2,-0.72255,0.332,na,0.0,,,,,
JVASP-70961,Zr2TiBe,0.01547,0.0,na,0.1019,,,,,
JVASP-70524,Be2SbW,0.52674,0.0,na,0.7392,,,,,
JVASP-70888,NaBePd2,-0.16627,0.0,na,0.2059,,,,,
JVASP-12154,VAgP2S6,-0.42563,0.0,na,0.0003,,,,,
JVASP-70451,Be2IrPd,-0.59258,0.0,na,0.0,,,,,
JVASP-71138,Li2BeIn,0.07318,0.0,na,0.3121,,,,,
JVASP-69842,MgBe2Te,0.51981,0.0,na,0.9958,,,,,
JVASP-70682,YBeTl,-0.13839,0.0,na,0.13,,,,,
JVASP-70743,Zr2TaBe,0.11345,0.0,na,0.2139,,,,,
JVASP-71514,Be2GaRu,-0.09165,0.0,na,0.2413,,,,,
JVASP-70141,TaBe2Ni,2e-05,0.0,na,0.4202,,,,,
JVASP-85362,Fe13Ge3,-0.05123,0.0,na,0.0089,,,,,
JVASP-69978,BeSbP4,0.84922,0.0,na,0.9066,,,,,
JVASP-69591,Be2SnBr,0.66018,0.0,0.0,1.061,,,,,
JVASP-69903,MgBeCr,0.5588,0.0,na,0.6635,,,,,
JVASP-70606,SrBe2Pb,0.46937,0.0,na,0.7809,,,,,
JVASP-71931,TiBe2V,-0.04824,0.0,0.0,0.1246,,,,,
JVASP-29025,Te2MoWSe2,-0.33988,0.656,0.651,0.1209,,,,,
JVASP-71555,Sr2BeBi,0.05423,0.0,na,0.7169,,,,,
JVASP-106038,Mg3MnTe4,-0.70225,0.971,na,0.0469,,,,,
JVASP-71177,BeBiW2,0.16207,0.0,0.0,0.4771,,,,,
JVASP-70067,SrBe2Br,0.39543,0.0,na,1.2792,,,,,
JVASP-71212,BeSn2Br,0.24379,0.0,na,0.6446,,,,,
JVASP-71400,LiCaBe2,0.3624,0.0,na,0.4371,,,,,
JVASP-96470,Ca2Se3O8,-1.76388,3.323,na,0.0,,,,,
JVASP-91469,SrZnP2O7,-2.52952,4.741,na,0.0,,,,,
JVASP-71712,NaBe2Si,0.5409,0.0,na,0.5634,,,,,
JVASP-86360,LaPt5,-0.78404,0.0,na,0.0,,,,,
JVASP-93121,LiHfMg6,0.06194,0.0,na,0.093,,,,,
JVASP-71362,Na2BeGe,0.24556,0.0,na,0.3467,,,,,
JVASP-15784,USi2,-0.21169,0.0,0.0,0.0533,,,,,
JVASP-94754,Mg6AlSi,0.04517,0.0,na,0.14,,,,,
JVASP-85436,Eu3As4Pd4,-0.98596,0.0,na,0.0,,,,,
JVASP-70922,BeNb2In,0.22829,0.0,0.0,0.3239,,,,,
JVASP-71651,BeRhCl2,0.27219,0.0,0.0,1.3915,,,,,
JVASP-75800,CuSi2As,0.57717,0.0,na,0.6069,,,,,
JVASP-92308,YbCu2S2,-1.12329,1.229,na,0.0,,,,,
JVASP-105749,Er2CuAu,-0.63775,0.0,na,0.0136,,,,,
JVASP-105617,K2RbLuCl6,-2.11876,4.567,na,0.071,,,,,
JVASP-71106,YBe2Cu,0.34859,0.0,na,0.5118,,,,,
JVASP-75877,NaAsP,0.37346,0.0,na,0.7037,,,,,
JVASP-70239,Be2GaPb,0.5817,0.0,na,0.5817,,,,,
JVASP-69387,Be2GeW,-0.16509,0.0,na,0.0474,,,,,
JVASP-71441,BeInTe2,0.07507,0.0,na,0.4432,,,,,
JVASP-71001,Ta2BeMo,-0.00277,0.0,na,0.1991,,,,,
JVASP-94231,Mg6GaFe,0.09373,0.0,na,0.1394,,,,,
JVASP-71293,MnBeGe,0.33692,0.0,na,0.466,,,,,
JVASP-85707,CaZrGeO5,-2.94078,3.789,4.996,0.0148,,,,,
JVASP-72025,TiBeSi2,-0.23097,0.0,0.0,0.1499,,,,,
JVASP-93317,MgCd,-0.04957,0.0,na,0.0671,,,,,
JVASP-91402,Ba2Mg3F10,-3.90707,7.474,na,0.0094,,,,,
JVASP-70745,CaHf2Be,0.15137,0.0,na,0.239,,,,,
JVASP-70377,Be2CrW,0.0039,0.0,0.0,0.3001,,,,,
JVASP-21199,Th,0.0,0.0,0.0,0.0,,,,,
JVASP-72214,BeGaCu2,0.01826,0.0,na,0.1182,,,,,
JVASP-105886,Yb3Sm,0.08026,0.0,na,0.0803,,,,,
JVASP-94135,Mg6GaCu,-0.01801,0.0,na,0.0763,,,,,
JVASP-91605,LuGa2Pd,-0.76564,0.0,na,0.0,,,,,
JVASP-105686,Rb3ErCl6,-2.17229,4.768,na,0.0,,,,,
JVASP-69674,TiBe2Ge,-0.23743,0.0,0.0,0.1123,,,,,
JVASP-92379,PrBRh3,-0.67524,0.0,na,0.0,,,,,
JVASP-71515,Be2SeCl,-0.1327,0.0,na,0.8921,,,,,
JVASP-71032,MgBe2Rh,-0.19606,0.0,na,0.1975,,,,,
JVASP-71401,ScBe2Bi,0.32569,0.0,na,0.692,,,,,
JVASP-93620,HoCuGe,-0.69918,0.0,na,0.0256,,,,,
JVASP-70856,Be2BiCl,0.15287,0.0,na,0.7125,,,,,
JVASP-86095,Rb2Hg2PdCl8,-1.03335,1.641,na,0.0001,,,,,
JVASP-15817,Ti5Te4,-0.6746,0.0,0.0,0.0,,,,,
JVASP-86842,URe2,-0.05694,0.0,na,0.0,,,,,
JVASP-92596,PrVO3,-3.0116,0.0,na,0.0003,,,,,
JVASP-92555,YSi3Ir,-0.7245,0.0,na,0.0185,,,,,
JVASP-70823,CaBePb2,0.15785,0.0,na,0.5132,,,,,
JVASP-70313,BeV2Pd2,0.17018,0.0,na,0.4894,,,,,
JVASP-95954,InH3O3,-1.29039,2.962,na,0.0,,,,,
JVASP-71178,MgScBe2,0.11171,0.0,na,0.2517,,,,,
JVASP-69982,SrYBe2,0.44078,0.0,na,0.4828,,,,,
JVASP-71329,Be2NbTc,0.1365,0.0,0.0,0.4227,,,,,
JVASP-71556,Be2ZnIn,0.50415,0.0,na,0.5055,,,,,
JVASP-85782,BaSO2,-1.9698,1.744,2.866,0.381,,,,,
JVASP-71475,BeZnPb,0.47151,0.0,na,0.4715,,,,,
JVASP-92509,AlWO3,-1.67796,0.0,na,1.0419,,,,,
JVASP-75878,TcAsIr2,0.32316,0.0,na,0.6149,,,,,
JVASP-70612,BeVPt,-0.10643,0.0,0.0,0.4177,,,,,
JVASP-71819,BePtCl2,0.31284,0.0,na,1.4322,,,,,
JVASP-68291,BeInMo2,0.39517,0.0,na,0.5069,,,,,
JVASP-70889,Li2BeCl,-0.39575,0.0,0.0,0.5965,,,,,
JVASP-17333,VS2,-0.71162,0.024,0.0,0.2537,,,,,
JVASP-3621,BiBrO,-1.25771,2.293,3.211,0.0,,,,,
JVASP-71363,Be2TcPb,0.4809,0.0,na,0.6452,,,,,
JVASP-85850,PuTe,-1.28047,0.0,0.0,0.0,,,,,
JVASP-14662,SmCo2,-0.14528,0.0,0.0,0.0,,,,,
JVASP-70525,Be2HgSb,0.48692,0.0,na,0.4869,,,,,
JVASP-70683,BeSiW,0.20365,0.0,na,0.5247,,,,,
JVASP-71768,BeCr2P,-0.06145,0.0,0.0,0.2896,,,,,
JVASP-71871,Be2CuPt2,-0.3434,0.0,na,0.0479,,,,,
JVASP-70452,BeZnTc,0.19774,0.0,na,0.3273,,,,,
JVASP-86435,CaUO4,-3.49601,2.339,2.366,0.0,,,,,
JVASP-92894,Mg6BiMo,0.20202,0.0,na,0.2855,,,,,
JVASP-1315,BaS,-2.275,2.148,3.279,0.0,,,,,
JVASP-93488,TeBr2,-0.10582,0.673,na,0.0417,,,,,
JVASP-92804,BaNi2As2,-0.68471,0.0,na,0.0017,,,,,
JVASP-74251,BeNbGa,0.24803,0.0,na,0.5445,,,,,
JVASP-69904,Be2SeBr,0.18077,0.0,na,1.0468,,,,,
JVASP-92258,ErCl3,-2.238,3.295,5.11,0.0003,,,,,
JVASP-71071,MgBeZn2,0.14511,0.0,na,0.2471,,,,,
JVASP-71003,ScBe2Zn,0.08355,0.0,na,0.3584,,,,,
JVASP-69676,SrZrBe2,0.71514,0.0,na,0.8593,,,,,
JVASP-105964,V6CoRh,-0.25291,0.0,na,0.0093,,,,,
JVASP-70240,NaBe2Cr,0.55234,0.0,na,0.7124,,,,,
JVASP-69508,SrBe2Ni,0.20791,0.0,na,0.4656,,,,,
JVASP-85542,CuH4O2F2,-1.22608,0.462,na,0.0197,,,,,
JVASP-70962,BeGeSb2,0.38542,0.0,na,0.3854,,,,,
JVASP-94086,Mg6GaNi,-0.02673,0.0,na,0.1076,,,,,
JVASP-50870,CdCuH8Cl4O4,-0.93716,0.72,na,0.0007,,,,,
JVASP-75879,AsPdAu,0.16857,0.0,na,0.3738,,,,,
JVASP-71294,MnBe2Rh,-0.31034,0.0,na,0.0774,,,,,
JVASP-70857,KBe2Pd,0.76886,0.0,na,1.0933,,,,,
JVASP-71402,BeTl2Os,0.38951,0.0,na,0.3895,,,,,
JVASP-72247,BeHg2Pd,0.3445,0.0,na,0.6246,,,,,
JVASP-60766,CoTeO4,-0.85579,0.0,0.021,0.2366,,,,,
JVASP-70824,BeSnTe2,0.05878,0.0,na,0.4332,,,,,
JVASP-70778,CaBeSi2,0.09866,0.0,na,0.4282,,,,,
JVASP-71557,Be2VBr,0.45627,0.0,na,0.9709,,,,,
JVASP-70381,SrBe2Cl,-0.16052,0.0,na,0.8666,,,,,
JVASP-71180,Be2OsSe,0.31271,0.0,na,0.7779,,,,,
JVASP-71442,Be2NbRh,-0.34684,0.0,0.0,0.0567,,,,,
JVASP-15488,CoSbS,-0.40038,0.0,0.0,0.0,,,,,
JVASP-70314,CaBe2Tl,0.3125,0.0,na,0.5975,,,,,
JVASP-70890,BeGeW2,-0.10815,0.0,na,0.2069,,,,,
JVASP-69985,Be2HgRh,0.11283,0.0,0.0,0.4741,,,,,
JVASP-70924,Mg2BeCl,-0.24,0.0,na,0.5081,,,,,
JVASP-71251,Sr2BeRu,0.13911,0.0,na,0.274,,,,,
JVASP-70613,Be2TeRh,0.00691,0.0,na,0.518,,,,,
JVASP-92942,Mg6GaBi,-0.05037,0.0,na,0.0771,,,,,
JVASP-70746,BeZn2Pb,0.36584,0.0,na,0.3658,,,,,
JVASP-71821,TaBe2Cl,0.29058,0.0,na,0.9972,,,,,
JVASP-71107,CaBeHg2,0.13516,0.0,na,0.4039,,,,,
JVASP-71713,BeVRh2,-0.37558,0.0,na,0.1216,,,,,
JVASP-71771,NaTaBe2,0.3878,0.0,na,0.5843,,,,,
JVASP-91329,LiCrGe2O6,-1.93979,1.484,na,0.0249,,,,,
JVASP-69767,Be2CrSi,0.30217,0.0,0.0,0.4604,,,,,
JVASP-93422,Fe2Sn,0.23559,0.0,na,0.238,,,,,
JVASP-71139,BeV2Cu,0.11622,0.0,na,0.1921,,,,,
JVASP-72470,BeNb2Si,-0.13353,0.0,na,0.3581,,,,,
JVASP-71982,Mn2BeOs,0.0543,0.0,na,0.1503,,,,,
JVASP-71403,KBe2Sb,0.59206,0.0,na,0.8471,,,,,
JVASP-71934,ZrBeCr2,0.27872,0.0,na,0.3871,,,,,
JVASP-70526,MgBe2Se,0.29492,0.0,na,0.9747,,,,,
JVASP-1351,YbS,-2.45728,2.207,3.458,0.0,,,,,
JVASP-70391,TiBe2Cl,0.33274,0.0,na,1.0613,,,,,
JVASP-71874,BeTlSi2,0.7768,0.0,na,0.7792,,,,,
JVASP-92443,GdP2Ru2,-1.21282,0.0,na,0.0,,,,,
JVASP-93718,Ce5Mg,0.10592,0.0,na,0.1174,,,,,
JVASP-91250,Na2BeGeO4,-2.20746,3.933,6.191,0.0,,,,,
JVASP-92737,SO4,-0.49058,0.0,na,0.3503,,,,,
JVASP-93183,KMg6Ga,0.07505,0.0,na,0.1214,,,,,
JVASP-71295,TaBe2Pb,0.4437,0.0,na,0.6372,,,,,
JVASP-93262,LaGaO3,-2.86099,3.357,na,0.0781,,,,,
JVASP-69843,MnBe2Zn,0.1243,0.0,na,0.3007,,,,,
JVASP-18702,Fe3Pd,0.28446,0.0,0.0,0.3137,,,,,
JVASP-71596,Be2CrPt,-0.21437,0.0,0.0,0.1486,,,,,
JVASP-95033,TmSn2,-0.546,0.0,na,0.0,,,,,
JVASP-74206,BeBi2W,1.02578,0.0,0.0,1.2016,,,,,
JVASP-71072,CaBe2Cl,-0.27582,0.0,na,0.7417,,,,,
JVASP-69592,MgBe2Se,0.33858,0.0,0.0,1.0183,,,,,
JVASP-70316,NaCaBe,0.55057,0.0,0.0,0.6047,,,,,
JVASP-87100,K2TeO3,-1.65919,3.695,4.876,0.0,,,,,
JVASP-105618,K2RbGaBr6,-1.32161,2.295,na,0.117,,,,,
JVASP-105750,Dy2ZnRh,-0.65015,0.0,na,0.006,,,,,
JVASP-71181,Hf2BeGa,-0.05112,0.0,na,0.3167,,,,,
JVASP-106041,Li3MnAs2,-0.51527,0.0,na,0.0733,,,,,
JVASP-4849,AlN,-1.52261,3.688,4.429,0.1269,,,,,
JVASP-70243,BeTcIr,-0.03501,0.0,na,0.2986,,,,,
JVASP-70068,MnBe2Cd,0.4241,0.0,0.0,0.6029,,,,,
JVASP-75880,Hg2AsSe,0.35688,0.0,na,0.4394,,,,,
JVASP-93864,YbCu4Ni,-0.23004,0.0,na,0.0665,,,,,
JVASP-71404,CaTiBe2,0.12768,0.0,na,0.3047,,,,,
JVASP-86561,YbNdS3,-1.91532,0.0,na,0.2234,,,,,
JVASP-50818,Ba2YF7,-4.18604,7.225,na,0.0216,,,,,
JVASP-69511,BeTcP,0.05837,0.0,na,0.456,,,,,
JVASP-70963,BeSi2Sb,0.49746,0.0,0.0,0.4998,,,,,
JVASP-71559,Be2NbPd,-0.28284,0.0,na,0.0916,,,,,
JVASP-69390,Be2ZnGa,0.32023,0.0,na,0.3202,,,,,
JVASP-71365,MnBeBr,0.40956,0.0,na,1.0028,,,,,
JVASP-71330,Sr2ScBe,0.23594,0.0,0.0,0.2987,,,,,