jid,formula,formation_energy_per_atom,optb88vdw_bandgap,mbj_bandgap,ehull,spacegroup_number,natoms,volume,bulk_modulus_kv,shear_modulus_gv
JVASP-106060,K2MgCuF6,-2.8894,0.0,0.0,0.0209,,,,,
JVASP-92397,SrSi2Pd2,-0.73023,0.0,na,0.0,,,,,
JVASP-43442,ScAgO3,-1.9084,0.34,na,0.0895,,,,,
JVASP-14642,V3As,-0.41009,0.0,0.0,0.0,,,,,
JVASP-74810,Be2PIr,-0.04765,0.0,na,0.4703,,,,,
JVASP-15354,HoInPd,-0.83072,0.0,na,0.0,,,,,
JVASP-92277,CaFe2Si2,-0.47899,0.0,na,0.0,,,,,
JVASP-74860,Be2InOs,0.22606,0.0,na,0.2274,,,,,
JVASP-74535,BeCuCl,-0.15111,0.0,0.0,0.6315,,,,,
JVASP-94344,MoO2,-2.05296,0.74,na,0.1032,,,,,
JVASP-71844,BeVP2,0.03507,0.0,0.0,0.5409,,,,,
JVASP-93215,Hf2SeN2,-1.81856,0.886,na,0.0,,,,,
JVASP-92324,Ca3SbP,-0.36599,0.0,na,0.721,,,,,
JVASP-92521,SmMg2Bi2,-0.45757,0.0,na,0.0659,,,,,
JVASP-74371,Be2NiW,-0.03429,0.0,na,0.3753,,,,,
JVASP-74585,Be2CrBi,0.66449,0.0,0.0,0.8215,,,,,
JVASP-74718,Be2ZnCo,-0.07987,0.0,na,0.1673,,,,,
JVASP-99072,BaMn4O8,-2.03566,0.0,na,0.0168,,,,,
JVASP-93731,PrMgSn,-0.62851,0.0,na,0.002,,,,,
JVASP-96514,CdHgC4S4N4,0.18293,2.227,3.215,0.2888,,,,,
JVASP-71681,BeFe2Se,0.30756,0.0,na,0.7745,,,,,
JVASP-108088,Ni2H,0.01899,0.0,0.0,0.0194,,,,,
JVASP-106138,B4OsW,-0.26062,0.0,na,0.0647,,,,,
JVASP-91265,Y2MnNiO6,-2.71674,0.469,na,0.0022,,,,,
JVASP-74493,BeVBr2,0.53228,0.0,na,1.3339,,,,,
JVASP-74673,MnBe2Co,-0.19051,0.0,na,0.0567,,,,,
JVASP-75008,Be2CuP,0.21878,0.0,na,0.3752,,,,,
JVASP-72001,BeGe2P,0.57155,0.0,na,0.7397,,,,,
JVASP-105773,HfTi3,0.02403,0.0,na,0.0357,,,,,
JVASP-74238,Be2BiSe,0.07189,0.0,na,0.5371,,,,,
JVASP-92747,NiB2W2,-0.38359,0.0,na,0.2194,,,,,
JVASP-92654,CeAl3Cu,-0.45227,0.0,na,0.0,,,,,
JVASP-44512,Li4Mn5NbO12,-2.02152,0.0,na,0.1248,,,,,
JVASP-74286,Be2InBi,0.73538,0.0,na,0.7367,,,,,
JVASP-93823,MgTiH4,-0.32441,0.0,na,0.0764,,,,,
JVASP-107987,SrNd3,0.11088,0.0,na,0.1109,,,,,
JVASP-94286,HoB2Ir3,-0.6757,0.0,na,0.0001,,,,,
JVASP-596,TaSe2,-0.81374,0.0,na,0.0095,,,,,
JVASP-74405,Be2InIr,0.00143,0.0,0.0,0.3607,,,,,
JVASP-3816,PI3,-0.03756,1.972,2.737,0.0002,,,,,
JVASP-74906,Be2PdPb,0.35242,0.0,0.0,0.6747,,,,,
JVASP-93146,CeHfMg6,0.13593,0.0,na,0.1437,,,,,
JVASP-74372,ZrBeV,0.42175,0.0,na,0.5229,,,,,
JVASP-3315,BeCN2,-0.51567,4.136,na,0.027,,,,,
JVASP-71845,Be2HgW,0.37395,0.0,na,0.5864,,,,,
JVASP-96785,BaLiAlF6,-3.78447,7.832,na,0.0001,,,,,
JVASP-74761,ScBeBr2,-0.17109,0.0,na,0.9722,,,,,
JVASP-74455,Be2SiRh,-0.35502,0.0,na,0.0474,,,,,
JVASP-92907,HfMg6Mo,0.17322,0.0,na,0.2037,,,,,
JVASP-108189,Li2NiO2,-1.45273,0.975,na,0.242,,,,,
JVASP-95211,NaSi3BO8,-2.77836,5.431,na,0.0,,,,,
JVASP-94918,La2FeSe2O2,-2.34049,0.322,na,0.1107,,,,,
JVASP-94254,HfMg6Zr,0.09781,0.0,na,0.1012,,,,,
JVASP-74861,TaBe2In,0.34958,0.0,na,0.5443,,,,,
JVASP-72003,BeIrBr,0.21171,0.0,na,0.849,,,,,
JVASP-71908,Zr2Be2Ga,0.00341,0.0,na,0.3931,,,,,
JVASP-105636,K2InAuI6,-0.72712,0.0,na,0.1033,,,,,
JVASP-74239,HfBe2Ru,-0.08317,0.0,0.0,0.4364,,,,,
JVASP-15135,HoFe2Ge2,-0.4774,0.0,na,0.0,,,,,
JVASP-93503,RbMnP,-0.43463,0.0,na,0.0,,,,,
JVASP-74191,K2BeRe,1.6088,0.0,0.0,1.7475,,,,,
JVASP-93273,BaRh2,-0.1545,0.0,na,0.0,,,,,
JVASP-74494,Be2SiRu,-0.27406,0.0,0.0,0.0421,,,,,
JVASP-16145,YbRbS2,-1.4933,0.0,0.0,0.2658,,,,,
JVASP-93200,SrLiMg6,0.02849,0.0,na,0.1197,,,,,
JVASP-74908,Be2ZnCr,0.14659,0.0,na,0.3036,,,,,
JVASP-74536,BePOs,0.07115,0.0,0.0,0.3308,,,,,
JVASP-87198,BaV2CdO7,-2.53084,2.907,na,0.0,,,,,
JVASP-44021,Li2CoBO4,-1.96815,0.096,na,0.167,,,,,
JVASP-92605,KCuF3,-2.27008,0.0,na,0.0166,,,,,
JVASP-93062,NaMg6Cr,0.21742,0.0,na,0.2189,,,,,
JVASP-94151,Mg6CoSn,0.05939,0.0,na,0.1671,,,,,
JVASP-94988,Co3Sn2S2,-0.38102,0.0,na,0.0,,,,,
JVASP-105984,TbCeO4,-3.3209,0.0,na,0.1076,,,,,
JVASP-107898,CaAg3,-0.25743,0.0,0.0,0.0099,,,,,
JVASP-92861,Mg6NbCr,0.37563,0.0,na,0.3819,,,,,
JVASP-92398,ErCo2B2,-0.61006,0.0,na,0.0,,,,,
JVASP-74961,ZrBe2Ni,-0.20082,0.0,0.0,0.1702,,,,,
JVASP-21528,Sr2IrO4,-2.20903,0.0,na,0.0,,,,,
JVASP-74328,Be2VTe,0.36626,0.0,na,0.6634,,,,,
JVASP-93216,Zr2SeN2,-1.78803,0.629,na,0.027,,,,,
JVASP-74586,Ca2BeCr,0.6142,0.0,na,0.7011,,,,,
JVASP-3627,NdCl3,-2.41579,4.374,5.374,0.0159,,,,,
JVASP-92563,TlHPd3,-0.21789,0.0,na,0.0,,,,,
JVASP-105838,PmBi3,-0.41781,0.0,na,0.0164,,,,,
JVASP-72165,BeGe2Pd,0.17679,0.0,na,0.4569,,,,,
JVASP-91343,NbTeBr3,-0.78099,0.551,na,0.0,,,,,
JVASP-95367,NaInBr4,-1.08978,2.594,na,0.0318,,,,,
JVASP-92279,Mn3ZnN,-0.22799,0.0,na,0.0,,,,,
JVASP-93776,HfV2,0.02443,0.0,na,0.0244,,,,,
JVASP-74373,SrBe2Ge,0.47367,0.0,na,0.8271,,,,,
JVASP-95498,Ba2VP2O9,-2.82982,1.017,na,0.0094,,,,,
JVASP-71683,BeRuRh2,-0.06657,0.0,na,0.233,,,,,
JVASP-92467,KTiO3,-2.45256,0.0,na,0.1508,,,,,
JVASP-96921,La4Se3O4,-3.05555,1.748,na,0.0,,,,,
JVASP-94774,CaMg6Zn,-0.02943,0.0,na,0.0678,,,,,
JVASP-71744,ScBeCl2,-0.46782,0.0,0.0,1.0742,,,,,
JVASP-94102,Mg6CrNi,0.16503,0.0,na,0.2554,,,,,
JVASP-71846,BeReMo2,0.20709,0.0,na,0.3415,,,,,
JVASP-15043,CeAs,-1.45188,0.0,na,0.0,,,,,
JVASP-74632,BeInBi2,0.53267,0.0,0.0,0.534,,,,,
JVASP-74538,Be2SiOs,-0.15796,0.0,na,0.0233,,,,,
JVASP-96786,Tl2CO3,-1.19903,2.911,na,0.0,,,,,
JVASP-92522,Ho2InNi2,-0.59864,0.0,na,0.0,,,,,
JVASP-74589,BeCoPd,-0.04464,0.0,na,0.3327,,,,,
JVASP-94384,MgZn2,-0.01289,0.0,na,0.1231,,,,,
JVASP-42884,TiZnPt2,-0.75656,0.0,na,0.0207,,,,,
JVASP-108090,Nb6AlGe,-0.21873,0.0,na,0.0327,,,,,
JVASP-91429,Na2SnC4O8,-1.45319,2.781,na,0.0434,,,,,
JVASP-93732,NdInPt4,-0.81306,0.0,na,0.0,,,,,
JVASP-71628,BeCu2Ge,0.15064,0.0,na,0.2052,,,,,
JVASP-93334,UBC,-0.51443,0.0,na,0.0,,,,,
JVASP-74720,Mg2ZrBe,0.18993,0.0,0.0,0.262,,,,,
JVASP-74811,TiBeOs4,0.37441,0.0,0.0,0.648,,,,,
JVASP-74909,Be2OsCl,0.12386,0.0,na,0.6835,,,,,
JVASP-91212,YbAl2Ni,-0.60162,0.0,na,0.0,,,,,
JVASP-74763,KBeBr2,-0.42759,0.0,1.562,0.9082,,,,,
JVASP-71957,BeV2Si,-0.24834,0.0,na,0.1426,,,,,
JVASP-28405,TeWS,-0.33644,0.249,na,0.2547,,,,,
JVASP-74192,BeZnCd2,0.33861,0.0,na,0.3436,,,,,
JVASP-72184,Mg2BeNb,0.24583,0.0,na,0.3401,,,,,
JVASP-74962,MnBe2Fe,-0.11228,0.0,na,0.0896,,,,,
JVASP-74456,Sr2BeW,1.05757,0.0,0.0,1.2334,,,,,
JVASP-71803,BeCu2Mo,0.28473,0.0,0.0,0.3952,,,,,
JVASP-96074,Y3Al2Ni6,-0.60453,0.0,na,0.0,,,,,
JVASP-3717,AlH3,-0.10201,2.464,3.731,0.0,,,,,
JVASP-99259,EuZn2Sn2,-0.22629,0.0,na,0.8353,,,,,
JVASP-93872,YTe2,-1.22299,0.0,na,0.0,,,,,
JVASP-74287,YBeHg2,0.04251,0.0,na,0.2623,,,,,
JVASP-14886,TaIr3,-0.69844,0.0,na,0.0187,,,,,
JVASP-75010,SrBeCd2,0.1105,0.0,na,0.4167,,,,,
JVASP-1279,LuN,-2.11365,0.351,1.404,0.0,,,,,
JVASP-94425,YFe5,-0.08793,0.0,na,0.0,,,,,
JVASP-94345,LiO2,-0.51923,0.0,na,0.5683,,,,,
JVASP-93147,CeMg6Mo,0.18066,0.0,na,0.1885,,,,,
JVASP-107988,TaFe2Ge,-0.23869,0.0,na,0.0,,,,,
JVASP-71684,Be2VCd,0.26271,0.0,na,0.4169,,,,,
JVASP-249,NiSe,-0.21919,0.0,0.0,0.0796,,,,,
JVASP-91487,Li4Be3As3ClO12,-2.09762,4.574,5.342,0.0,,,,,
JVASP-19930,ZnCu,-0.07738,0.0,0.0,0.0,,,,,
JVASP-74590,K2BePb,0.48956,0.0,na,0.5773,,,,,
JVASP-74406,Hf2BeMo,-0.01963,0.0,0.0,0.1248,,,,,
JVASP-15271,KFeS2,-0.87674,0.0,0.0,0.0085,,,,,
JVASP-28378,MgCoGe,-0.31127,0.0,na,0.0,,,,,
JVASP-95707,Ba3ScCO3F7,-3.55786,4.943,na,0.0,,,,,
JVASP-94255,Mg6TiFe,0.16036,0.0,na,0.2789,,,,,
JVASP-15819,NbPSe,-0.7255,0.0,0.0,0.0572,,,,,
JVASP-74674,BePbCl2,-0.04444,0.0,na,1.0749,,,,,
JVASP-43093,LiSbTe3O12,-1.14987,1.331,1.874,0.0156,,,,,
JVASP-96852,VInCuO5,-1.78515,0.186,na,0.0287,,,,,
JVASP-74910,BeSeBr,-0.37509,0.0,na,0.4694,,,,,
JVASP-94989,Sr2CoBr2O2,-2.11461,0.0,na,0.0479,,,,,
JVASP-105702,RbMnAs,-0.27204,0.0,0.0,0.0709,,,,,
JVASP-74240,Ca2MgBe,0.24231,0.0,0.0,0.3379,,,,,
JVASP-94873,Mn2B4W,-0.3435,0.0,na,0.1037,,,,,
JVASP-71847,BeCu2Ge,0.12715,0.0,na,0.1818,,,,,
JVASP-105905,YbBa2MoO6,-3.0363,2.124,na,0.0,,,,,
JVASP-71629,BeCr2Si,0.01126,0.0,na,0.2515,,,,,
JVASP-95049,NdO2,-2.84499,0.0,na,0.2259,,,,,
JVASP-71804,BeMoIr2,-0.14574,0.0,0.0,0.2419,,,,,
JVASP-107900,TbCaPd2,-0.86676,0.0,0.0,0.009,,,,,
JVASP-108193,LiFe2O3,-1.49512,0.0,na,0.0999,,,,,
JVASP-74863,Be2VCr,0.05236,0.0,0.0,0.2311,,,,,
JVASP-93924,CaZn,-0.33721,0.0,na,0.0003,,,,,
JVASP-105638,K2AgAuCl6,-1.04723,0.0,na,0.0104,,,,,
JVASP-92400,YbCr2Si2,-0.26546,0.0,na,0.134,,,,,
JVASP-50717,Ba2GaP4HO14,-2.4968,5.454,na,0.0,,,,,
JVASP-72005,BeCo2P,-0.36427,0.0,na,0.0798,,,,,
JVASP-94287,USnPd,-0.40906,0.0,na,0.0293,,,,,
JVASP-96515,LiTiMnF6,-3.05258,0.025,na,0.0207,,,,,
JVASP-94919,U2Re2C3,-0.1384,0.0,na,0.0946,,,,,
JVASP-93504,CeMnNi4,-0.25155,0.0,na,0.0869,,,,,
JVASP-95213,H6CN2O3,-0.52157,4.52,na,0.2326,,,,,
JVASP-22602,BeF2,-3.42578,8.212,12.36,0.0143,,,,,
JVASP-74193,NaCa2Be,0.4077,0.0,na,0.4525,,,,,
JVASP-54797,CrCoPt2,-0.17316,0.0,0.0,0.0002,,,,,
JVASP-75011,Be2PbBr,0.7579,0.0,na,1.1587,,,,,
JVASP-92326,CuAg2O2,-0.19128,0.0,na,0.2084,,,,,
JVASP-74495,Be2NbHg,0.52199,0.0,0.0,0.7106,,,,,
JVASP-74288,BeTlNi4,0.26874,0.0,0.0,0.4246,,,,,
JVASP-74864,Na2BeRe,1.19106,0.0,na,1.3315,,,,,
JVASP-72191,LiHf2Be,0.29798,0.0,na,0.3816,,,,,
JVASP-74413,BeTcNi,0.04756,0.0,0.0,0.3592,,,,,
JVASP-93201,Mg6TiGa,0.02851,0.0,na,0.1422,,,,,
JVASP-71849,TiBePt2,-0.68479,0.0,na,0.1448,,,,,
JVASP-92908,Mg6GaMo,0.1441,0.0,na,0.1965,,,,,
JVASP-92280,In2Te3,-0.25325,0.0,na,0.0111,,,,,
JVASP-17341,AlSbO3,-1.01623,0.0,na,1.364,,,,,
JVASP-92656,HoSi3Ir,-0.69803,0.0,na,0.0,,,,,
JVASP-71909,BeCr2Hg,0.57821,0.0,0.0,0.6567,,,,,
JVASP-93668,U2TiH3,0.04391,0.0,na,0.362,,,,,
JVASP-93063,HfMg6Si,-0.00545,0.0,na,0.1781,,,,,
JVASP-14664,Ru,0.0,0.0,0.0,0.0,,,,,
JVASP-74675,Be2CrMo,0.14666,0.0,na,0.3676,,,,,
JVASP-48270,LiFeO3,-1.51469,0.325,na,0.0864,,,,,
JVASP-93735,NbSe2,-0.8546,0.0,na,0.0129,,,,,
JVASP-14565,ErHg,-0.38518,0.0,0.0,0.004,,,,,
JVASP-106064,HoAlGa,-0.57923,0.0,0.0,0.0002,,,,,
JVASP-74633,ZrScBe2,-0.07845,0.0,0.0,0.0743,,,,,
JVASP-105774,Hg,0.25691,0.0,0.0,0.0,,,,,
JVASP-93274,CaCo2As2,-0.61892,0.0,na,0.0,,,,,
JVASP-93377,BC5,0.20354,0.0,na,0.2249,,,,,
JVASP-74329,Be2IrW,-0.21132,0.0,0.0,0.2601,,,,,
JVASP-92748,CrAu4,0.04421,0.0,na,0.0442,,,,,
JVASP-94826,Al2ZnS4,-1.05074,0.302,na,0.115,,,,,
JVASP-92862,Mg6NbGa,0.0768,0.0,na,0.1629,,,,,
JVASP-91266,BaMnP2O7,-2.50711,1.926,na,0.0,,,,,
JVASP-106141,AlNi6Ge,-0.34903,0.0,na,0.0131,,,,,
JVASP-15604,LuB2Ru3,-0.46289,0.0,na,0.0,,,,,
JVASP-18419,W3O,0.73964,0.0,0.0,1.9157,,,,,
JVASP-15084,B2Os,-0.17482,0.0,0.0,0.0,,,,,
JVASP-94152,Mg6NbCu,0.17175,0.0,na,0.222,,,,,
JVASP-71959,TaBeCd,0.43782,0.0,0.0,0.575,,,,,
JVASP-91213,SiO2,-2.89969,6.006,na,0.0016,,,,,
JVASP-74721,Ca2ScBe,0.43027,0.0,0.0,0.5014,,,,,
JVASP-74414,TiBeGa,0.16427,0.0,na,0.5326,,,,,
JVASP-14593,Pu,-0.0,0.0,na,0.0,,,,,
JVASP-74765,BeInCl2,-0.0064,0.0,0.0,1.1142,,,,,
JVASP-99073,Ge4PbO9,-1.6807,3.669,na,0.021,,,,,
JVASP-92700,GeH4,0.47683,0.0,na,0.4779,,,,,
JVASP-3432,MnGa2S4,-0.7068,1.032,na,0.0,,,,,
JVASP-107,SiC,-0.24337,2.495,3.232,0.0008,,,,,
JVASP-94780,LiMg6Al,-0.02863,0.0,na,0.0318,,,,,
JVASP-16020,TmCuSi,-0.65624,0.0,0.0,0.0,,,,,
JVASP-105985,SrZnSi,-0.47623,0.0,na,0.0245,,,,,
JVASP-75012,MnBe2In,0.3143,0.0,na,0.492,,,,,
JVASP-72200,BeHg2Ir,0.64682,0.0,na,0.801,,,,,
JVASP-48728,Fe4OF7,-1.96354,0.0,0.0,0.02,,,,,
JVASP-94920,MnIn2Se4,-0.41807,0.0,na,0.0693,,,,,
JVASP-74289,BePtBr2,0.76618,0.0,na,1.5678,,,,,
JVASP-74241,BeZnSe2,0.36765,0.0,0.0,1.1918,,,,,
JVASP-92606,YSi2Ru2,-0.85866,0.0,na,0.0,,,,,
JVASP-22715,KCaBi,-0.78275,1.098,1.89,0.0,,,,,
JVASP-74376,MnBe2Ir,-0.31128,0.0,0.0,0.1062,,,,,
JVASP-93217,CeMg5,-0.00968,0.0,na,0.0007,,,,,
JVASP-96077,K6Pb2O5,-1.43292,2.259,na,0.0,,,,,
JVASP-94256,Mg6ZrBi,-0.04707,0.0,na,0.0525,,,,,
JVASP-93335,ZrTa2N3,-1.16329,0.0,na,0.3637,,,,,
JVASP-93824,Li2Tl,-0.25653,0.0,na,0.0,,,,,
JVASP-14973,InTe,-0.31322,0.0,na,0.0,,,,,
JVASP-13890,NpSi,-0.05005,0.0,na,0.243,,,,,
JVASP-93925,Ce2Mg,0.06111,0.0,na,0.084,,,,,
JVASP-44329,Li8FeO5F,-2.07666,0.644,na,0.0965,,,,,
JVASP-92328,H2C2S,0.94343,0.193,na,1.0534,,,,,
JVASP-107901,Yb3Ca,0.00846,0.067,0.125,0.0127,,,,,
JVASP-93438,NdIr5,-0.29317,0.0,na,0.0914,,,,,
JVASP-74634,Be2WSe,0.28051,0.0,0.0,0.9215,,,,,
JVASP-105840,PmHo3,0.01637,0.0,na,0.0164,,,,,
JVASP-74963,KBeIn2,0.39662,0.0,0.0,0.4669,,,,,
JVASP-92281,TiPbO3,-2.49998,1.67,na,0.0167,,,,,
JVASP-74540,Be2FePb,0.56306,0.0,0.0,0.7648,,,,,
JVASP-93148,NaCeMg6,0.09973,0.0,na,0.1091,,,,,
JVASP-105906,HoInNi4,-0.42857,0.0,na,0.0,,,,,
JVASP-94288,CaGe2,-0.55685,0.0,na,0.0,,,,,
JVASP-94346,LiMg2,-0.04199,0.0,na,0.0407,,,,,
JVASP-108194,Ba2Sc2O5,-3.38023,1.87,na,0.0,,,,,
JVASP-74591,YBeCd2,0.01551,0.0,na,0.2923,,,,,
JVASP-71806,BeZnPt2,-0.339,0.0,na,0.1298,,,,,
JVASP-74194,Be2IrPt,-0.70132,0.0,na,0.0022,,,,,
JVASP-72009,Be2GaSi,0.44655,0.0,na,0.4477,,,,,
JVASP-74766,Be2POs,-0.17111,0.0,na,0.0236,,,,,
JVASP-94104,Mg6NiMo,0.21913,0.0,na,0.3095,,,,,
JVASP-95520,Er3P6Pd20,-0.6959,0.0,na,0.0,,,,,
JVASP-92401,SmNi2Sb2,-0.53914,0.0,na,0.0462,,,,,
JVASP-71913,BeGaCu2,0.01164,0.0,na,0.1116,,,,,
JVASP-93064,NaMg6Cr,0.22123,0.0,na,0.2228,,,,,
JVASP-106067,K2SnHgTe4,-0.5663,0.603,na,0.0076,,,,,
JVASP-92523,Ca2MgPd2,-0.73972,0.0,na,0.0,,,,,
JVASP-87203,Sb2MoSe,-0.26116,0.0,na,0.0,,,,,
JVASP-95712,Nd3CuGeSe7,-1.36944,1.158,na,0.0,,,,,
JVASP-74866,Be2SnPb,0.73073,0.0,na,0.7307,,,,,
JVASP-96854,Ce2Zn2Cu5,-0.17422,0.0,na,0.0294,,,,,
JVASP-1285,BaO2,-2.08593,2.327,3.742,0.0,,,,,
JVASP-99263,FeSn2,0.05107,0.0,na,0.0523,,,,,
JVASP-20094,Co3Mo,-0.09323,0.0,0.0,0.0,,,,,
JVASP-92658,Ce3InC,1.86614,0.0,na,2.2059,,,,,
JVASP-18552,NiGePt2,-0.29929,0.0,na,0.0,,,,,
JVASP-74812,Be2InTc,0.29604,0.0,0.0,0.4616,,,,,
JVASP-74457,Be2PbCl,0.66247,0.0,0.0,1.2221,,,,,
JVASP-74242,SrBeCd2,0.20738,0.0,na,0.5136,,,,,
JVASP-74415,SrBePb2,0.10974,0.0,na,0.4784,,,,,
JVASP-93874,RbC2,1.16914,0.0,na,1.1813,,,,,
JVASP-74496,Be2PbSe,0.56207,0.0,na,1.0272,,,,,
JVASP-92909,Mg6CrB,0.19374,0.0,na,0.3144,,,,,
JVASP-95217,SmP3H5NO10,-1.97314,5.683,na,0.0,,,,,
JVASP-74768,BeOsBr4,1.83234,0.0,na,2.4158,,,,,
JVASP-96788,CoH6C2O6,-0.90931,0.052,na,0.0919,,,,,
JVASP-91490,LiTaSiO5,-2.9284,3.893,na,0.0,,,,,
JVASP-92564,LuAu4,-0.64662,0.0,na,0.0,,,,,
JVASP-74378,Be2NiTe,0.35615,0.0,na,0.8014,,,,,
JVASP-74636,ScBe2Bi,0.2253,0.0,na,0.5916,,,,,
JVASP-3720,K2MgH4,-0.3793,3.964,6.221,0.0,,,,,
JVASP-74677,Be2SiMo,0.14649,0.0,na,0.4156,,,,,
JVASP-74196,NaCaBe2,0.61542,0.0,na,0.6894,,,,,
JVASP-74912,Be2CuNi,-0.16716,0.0,na,0.1212,,,,,
JVASP-91430,Na2BeGe2O6,-2.0923,3.509,na,0.0,,,,,
JVASP-74243,ScBeBi,-0.1323,0.0,na,0.3561,,,,,
JVASP-93202,Mg6TiB,0.36441,0.0,na,0.5701,,,,,
JVASP-74813,BeTlCl2,-0.07633,0.0,na,1.043,,,,,
JVASP-107993,ThBiAu2,-0.62533,0.0,0.0,0.0,,,,,
JVASP-105775,Ho5Mg,0.01596,0.0,na,0.041,,,,,
JVASP-71745,BeCr2Cu,0.12286,0.0,0.0,0.2014,,,,,
JVASP-3630,BI3,-0.02499,2.651,3.537,0.0078,,,,,
JVASP-91344,K3NO3,-1.13921,0.266,0.18,0.0064,,,,,
JVASP-94385,MgZn5,0.01373,0.0,na,0.0817,,,,,
JVASP-95373,SrY2S4,-2.34596,1.832,na,0.0131,,,,,
JVASP-15009,YbPb,-0.61808,0.0,na,0.0,,,,,
JVASP-93670,HoSnAu,-0.71052,0.0,na,0.1581,,,,,
JVASP-94788,CaMg6Ni,0.01437,0.0,na,0.1579,,,,,
JVASP-94990,Ga2CoS4,-0.5842,0.416,na,0.0917,,,,,
JVASP-93218,CaZn,-0.16633,0.0,na,0.1712,,,,,
JVASP-96516,ZnS,-0.88528,2.105,na,0.0015,,,,,
JVASP-91267,BaSm2NiO5,-2.85342,0.0,na,0.0703,,,,,
JVASP-92863,HfMg6Nb,0.20588,0.0,na,0.2059,,,,,
JVASP-96922,U5Ge4,-0.1988,0.0,na,0.0252,,,,,
JVASP-15272,MgAl2Si2,-0.05337,0.0,0.0,0.0121,,,,,
JVASP-74769,La2BeZn,-0.06945,0.0,na,0.1153,,,,,
JVASP-74592,CaBe2Bi,0.42153,0.0,na,0.8073,,,,,
JVASP-94257,CaZn3,-0.26445,0.0,na,0.0526,,,,,
JVASP-108093,Nb4CoPt3,-0.47213,0.0,na,0.0483,,,,,
JVASP-71688,BeCu2Rh,-0.08347,0.0,0.0,0.2161,,,,,
JVASP-74379,BeCr4W,0.06687,0.0,na,0.212,,,,,
JVASP-92329,NdCu2Si2,-0.55685,0.0,na,0.0,,,,,
JVASP-105842,PmNdGa2,-0.57563,0.0,na,0.0,,,,,
JVASP-14643,HoAs,-1.58183,0.0,0.0,0.0,,,,,
JVASP-74244,Be2WCl,0.33673,0.0,na,1.0905,,,,,
JVASP-94921,DyIn5Co,-0.24537,0.0,na,0.0035,,,,,
JVASP-96080,MnVCuO4,-1.82235,0.503,na,0.0789,,,,,
JVASP-74290,MnBeMo,0.33778,0.0,na,0.4851,,,,,
JVASP-74914,BeGeSb,0.30909,0.0,na,0.3091,,,,,
JVASP-74815,Be2CdSe,0.37443,0.0,na,0.8421,,,,,
JVASP-94874,Nb2VSe4,-0.84001,0.0,na,0.026,,,,,
JVASP-95050,ScZnPt,-0.97976,0.0,na,0.0,,,,,
JVASP-74722,LiBe2Cr,0.29534,0.0,na,0.4526,,,,,
JVASP-75013,Sr2TiBe,0.81353,0.0,0.0,0.8999,,,,,
JVASP-99086,Ba4NaRu3O12,-2.10602,0.368,na,0.0,,,,,
JVASP-72010,SrZrBe,0.58632,0.0,na,0.6824,,,,,
JVASP-94153,Mg6CuMo,0.21934,0.0,na,0.2696,,,,,
JVASP-93151,CeMg6W,0.19709,0.0,na,0.2745,,,,,
JVASP-105703,RbHfCu3Se4,-0.61093,0.947,1.838,0.165,,,,,
JVASP-105642,K2ScAuF6,-2.8675,1.457,3.593,0.1785,,,,,
JVASP-74330,BeGaBr2,0.16627,0.0,0.753,0.9679,,,,,
JVASP-93275,SrP2Os2,-0.66187,0.0,na,0.0,,,,,
JVASP-71632,BeCu2P,0.12544,0.0,0.0,0.227,,,,,
JVASP-48131,Fe2O3F,-1.58757,0.0,0.0,0.0462,,,,,
JVASP-43822,Co3OF5,-1.67116,0.0,na,0.0296,,,,,
JVASP-74497,Be2IrRu,-0.36131,0.0,na,0.0574,,,,,
JVASP-94347,LaMg2,-0.00221,0.0,na,0.1232,,,,,
JVASP-93378,NaMnBi,0.05712,0.0,na,0.2902,,,,,
JVASP-93439,BiAu2,-0.04419,0.0,na,0.0,,,,,
JVASP-92282,In2Se3,-0.05751,0.0,na,0.4224,,,,,
JVASP-1885,LaCuO2,-2.51466,2.583,na,0.0062,,,,,
JVASP-71746,MgTaBe2,0.14769,0.0,0.0,0.3411,,,,,
JVASP-74770,ZrBeNb,0.30662,0.0,na,0.4323,,,,,
JVASP-74867,Be2PdBr,0.32145,0.0,na,1.0235,,,,,
JVASP-93777,Sm2Sb,-0.85023,0.0,na,0.0118,,,,,
JVASP-18790,Ta3Sn,-0.00157,0.0,na,0.0,,,,,
JVASP-107902,YbCaPd2,-0.87619,0.0,0.0,0.0,,,,,
JVASP-91214,Nd3Au4,-0.88222,0.0,na,0.0,,,,,
JVASP-71807,BeMo2Ru,0.09202,0.0,na,0.2375,,,,,
JVASP-28569,MoW2S6,-0.91666,0.827,na,0.08,,,,,
JVASP-93736,HoCo2,-0.27518,0.0,na,0.0,,,,,
JVASP-22731,SrMg2As2,-1.06065,1.463,1.948,0.0,,,,,
JVASP-94291,TbSn2,-0.61593,0.0,na,0.0,,,,,
JVASP-95521,EuI2,-1.18311,0.0,na,0.0,,,,,
JVASP-74541,HfBeCd2,0.29004,0.0,0.0,0.4157,,,,,
JVASP-74246,ZrBe2Te,0.18544,0.0,na,0.7268,,,,,
JVASP-93065,BaNaMg6,0.07588,0.0,na,0.156,,,,,
JVASP-94106,Mg6TiNi,0.07082,0.0,na,0.1791,,,,,
JVASP-74416,KBe2Br,0.61915,0.0,na,1.5542,,,,,
JVASP-74964,Be2CoSi,-0.14491,0.0,0.0,0.1434,,,,,
JVASP-74380,ZrBe2Hg,0.26211,0.0,na,0.4318,,,,,
JVASP-92752,RbNbO3,-2.60565,1.461,na,0.0,,,,,
JVASP-49791,ScTlO2,-2.5578,1.162,1.654,0.0805,,,,,
JVASP-74593,BeRhW,-0.12204,0.0,na,0.463,,,,,
JVASP-54641,TiNiSn,0.11244,0.012,0.014,0.6595,,,,,
JVASP-71960,MnBeCu2,0.16154,0.0,0.0,0.2497,,,,,
JVASP-43584,LiFeF4,-2.39283,0.053,0.0,0.1819,,,,,
JVASP-18876,BaIn,-0.49565,0.0,na,0.0014,,,,,
JVASP-74915,BeCd2Ga,0.3871,0.0,na,0.3921,,,,,
JVASP-42645,LiCo3OF5,-1.76189,0.071,na,0.1539,,,,,
JVASP-74291,BeBi2Ir,0.652,0.0,na,0.8225,,,,,
JVASP-106145,AgBiTe3Pb,-0.20439,0.0,na,0.0488,,,,,
JVASP-93505,ErNi5,-0.37517,0.0,na,0.0002,,,,,
JVASP-93336,SnO2,-1.78583,0.895,na,0.01,,,,,
JVASP-71914,BeCo2Sb,0.15696,0.0,0.0,0.3807,,,,,
JVASP-87205,Hg3SO6,-0.74327,0.597,na,0.0,,,,,
JVASP-92910,Mg6MoC,0.24959,0.0,na,0.292,,,,,
JVASP-19888,ZrCr2,-0.04887,0.0,0.0,0.0013,,,,,
JVASP-14744,Os,0.0,0.0,0.0,0.0,,,,,
JVASP-74678,K2BeW,1.61866,0.0,0.0,1.7988,,,,,
JVASP-93875,Zr2Cu,-0.10173,0.0,na,0.0587,,,,,
JVASP-96855,Ba2CaV2CuF14,-3.35189,0.025,na,0.0,,,,,
JVASP-74331,BeSiPd,-0.05796,0.0,0.0,0.3171,,,,,
JVASP-92402,PrNi2Sb2,-0.58205,0.0,na,0.0166,,,,,
JVASP-93926,NdCu2,-0.27439,0.0,na,0.0127,,,,,
JVASP-94827,MgMn2O4,-2.03082,0.0,na,0.1018,,,,,
JVASP-75014,BeZnPd,-0.13787,0.0,0.0,0.2839,,,,,
JVASP-105779,HoMgAg2,-0.33538,0.0,na,0.0,,,,,
JVASP-43125,Cr3SbP4O16,-2.07546,0.944,na,0.0714,,,,,
JVASP-93674,HfFe2,-0.36118,0.0,na,0.0072,,,,,
JVASP-74774,LaBe2Tl,0.41747,0.0,na,0.6419,,,,,
JVASP-107994,YbYHg2,-0.5332,0.0,na,0.0,,,,,
JVASP-74417,BeReBi2,1.12036,0.0,na,1.2547,,,,,
JVASP-74596,NaLaBe,0.52721,0.0,na,0.5313,,,,,
JVASP-74381,NaCa4Be,0.63436,0.0,na,0.6698,,,,,
JVASP-92607,KCoF3,-2.33866,0.0,na,0.0135,,,,,
JVASP-94261,Li3As,-0.77983,0.763,na,0.0002,,,,,
JVASP-93825,CoO2,-0.98532,0.0,na,0.0816,,,,,
JVASP-74498,Be2CoSi,-0.1469,0.0,0.0,0.1414,,,,,
JVASP-74197,BeCrBi2,0.71107,0.0,0.0,0.7896,,,,,
JVASP-42803,V3O4F2,-2.68545,0.0,na,0.024,,,,,
JVASP-105916,Pb2IO2,-1.01656,0.0,0.0,0.0,,,,,
JVASP-105986,TaVH4,-0.14264,0.0,0.0,0.0,,,,,
JVASP-99265,AgPdF6,-1.30423,0.04,na,0.0,,,,,
JVASP-74458,Be2CoIr,-0.20685,0.0,0.0,0.2586,,,,,
JVASP-91491,In2Ag2GeS6,-0.43454,0.81,na,0.0,,,,,
JVASP-92565,NdSi3Os,-0.57179,0.0,na,0.0,,,,,
JVASP-17344,SrCuSO,-1.34058,0.0,0.0,0.4298,,,,,
JVASP-16021,YbCuSi,-0.49218,0.0,na,0.0021,,,,,
JVASP-74543,BeSbPb2,0.53987,0.0,na,0.5399,,,,,
JVASP-105845,PmNdIn2,-0.51224,0.0,na,0.0101,,,,,
JVASP-93219,CaMg2,-0.01682,0.0,na,0.125,,,,,