jid,formula,formation_energy_per_atom,optb88vdw_bandgap,mbj_bandgap,ehull,spacegroup_number,natoms,volume,bulk_modulus_kv,shear_modulus_gv
JVASP-92169,Co3Mo,-0.09324,0.0,0.0,0.0,,,,,
JVASP-91675,AlPt3,-0.67571,0.0,na,0.0249,,,,,
JVASP-65173,BeSnRu4,0.62288,0.0,na,0.7508,,,,,
JVASP-48177,Nb2CoO6,-2.28982,0.0,na,0.0398,,,,,
JVASP-14850,USb,-0.20124,0.0,na,0.048,,,,,
JVASP-86799,Mg3Bi2,-0.26708,0.007,0.379,0.0,,,,,
JVASP-15676,CeB2Rh2C,-0.64679,0.0,na,0.0,,,,,
JVASP-63419,PuB4Mo,-0.57945,0.0,na,0.0,,,,,
JVASP-91718,Mg3TiO4,-2.74101,0.0,na,0.2186,,,,,
JVASP-97983,Er3FeSi3,-0.7418,0.0,0.0,0.0,,,,,
JVASP-69320,BaTl2Bi,-0.32738,0.0,na,0.1407,,,,,
JVASP-68962,BaSrMg2,-0.10127,0.0,na,0.0372,,,,,
JVASP-15037,DyNi,-0.53323,0.0,na,0.0,,,,,
JVASP-69279,KBaMn2,0.91137,0.0,na,0.9135,,,,,
JVASP-65210,BePtRh,-0.44316,0.0,na,0.0669,,,,,
JVASP-61797,H12AuC4N,-0.02411,3.401,na,0.1726,,,,,
JVASP-90830,Ti3Pd5,-0.30259,0.0,0.0,0.3175,,,,,
JVASP-85684,HgH2NCl,-0.25372,2.554,3.939,0.1744,,,,,
JVASP-98161,VH4NO3,-1.31741,2.957,na,0.0,,,,,
JVASP-88897,DyCu2S2,-0.88261,0.0,na,0.3055,,,,,
JVASP-91865,Mg7Ga,-0.03237,0.0,na,0.0117,,,,,
JVASP-85738,U2InRh2,-0.42971,0.0,0.0,0.0,,,,,
JVASP-47051,Li3Nb4VO12,-2.6129,0.0,na,0.0434,,,,,
JVASP-228,MoS2,-0.69909,0.0,0.0,0.2625,,,,,
JVASP-61574,BAsO4,-1.73733,4.469,6.027,0.0033,,,,,
JVASP-97564,Na5H29I2O24,-1.02081,1.665,na,0.0305,,,,,
JVASP-86997,CaCu2O3,-1.56004,0.0,na,0.0682,,,,,
JVASP-89349,BaBe2B2O6,-2.95547,5.788,na,0.0,,,,,
JVASP-65671,BaTl2Bi,-0.32755,0.0,na,0.1406,,,,,
JVASP-86522,BaB2F8,-3.35677,8.458,10.256,0.0,,,,,
JVASP-66092,Ba4TlFe,0.95325,0.0,na,1.1187,,,,,
JVASP-91766,NdInCo2,-0.22273,0.0,na,0.0455,,,,,
JVASP-87846,LaAl,-0.45001,0.0,na,0.0,,,,,
JVASP-97729,Ce2WC2,-0.37544,0.0,na,0.0,,,,,
JVASP-69121,Ba2LaNb,0.81035,0.0,na,0.8104,,,,,
JVASP-69202,BaHf4Be,0.87709,0.0,na,0.9327,,,,,
JVASP-66053,BaGaSb,-0.27044,0.516,0.642,0.4746,,,,,
JVASP-20061,NdCd,-0.35218,0.0,0.0,0.0,,,,,
JVASP-69081,K2BaMn,0.49661,0.0,0.0,0.5009,,,,,
JVASP-90063,HfCoSn,-0.2451,0.0,na,0.186,,,,,
JVASP-15530,ThSi2Ru2,-0.87769,0.0,na,0.0,,,,,
JVASP-86117,Sm2C3N6,-0.87396,2.436,na,0.0,,,,,
JVASP-85826,Ni3S2,-0.28184,0.0,na,0.1301,,,,,
JVASP-86873,Sr8Mn2FeN8,-0.88899,0.0,na,0.0163,,,,,
JVASP-86463,LiAlTe2,-0.77762,2.495,3.028,0.0,,,,,
JVASP-65530,KBaCd2,-0.22266,0.0,na,0.0812,,,,,
JVASP-90491,V2CoO6,-2.09728,0.064,na,0.013,,,,,
JVASP-65710,BaCa2Y,0.12129,0.0,na,0.1314,,,,,
JVASP-61316,UAlRh,-0.58722,0.0,na,0.1285,,,,,
JVASP-63708,ScB2C2,-0.53767,0.0,na,0.0,,,,,
JVASP-69280,Ba2BiMo,0.3893,0.0,0.0,1.0409,,,,,
JVASP-3870,Rb2SeCl6,-1.21556,2.395,2.931,0.0,,,,,
JVASP-63832,AsCF3,-1.1974,3.258,na,0.5598,,,,,
JVASP-66207,BaBiSb,-0.19802,0.0,na,0.5419,,,,,
JVASP-65474,BaZn2Ru,0.08924,0.0,na,0.2991,,,,,
JVASP-65174,Li4MnBe,0.65461,0.0,0.0,0.714,,,,,
JVASP-90396,CeMg,0.01745,0.0,na,0.045,,,,,
JVASP-89924,Nb2N,-0.95938,0.0,na,0.0,,,,,
JVASP-98083,SbICl2F6,-1.65668,1.684,na,0.0,,,,,
JVASP-85890,HoInCu,-0.43838,0.0,na,0.0,,,,,
JVASP-87070,CaSbPt,-1.01397,0.0,na,0.0,,,,,
JVASP-66244,BaZnBi,-0.15427,0.0,na,0.5368,,,,,
JVASP-87948,Ba5Co5O14,-2.0,0.0,na,0.0357,,,,,
JVASP-89086,TaSiIr,-0.72412,0.0,na,0.0,,,,,
JVASP-88747,TlZnPO4,-1.91856,4.009,na,0.0,,,,,
JVASP-14704,MnRh,0.39013,0.0,0.0,0.3987,,,,,
JVASP-90876,NdCoGe2,-0.6691,0.0,na,0.0,,,,,
JVASP-85398,TlFeO2,-0.93344,0.0,na,0.2266,,,,,
JVASP-88048,MgCO3,-1.80284,5.696,8.1,0.3926,,,,,
JVASP-63193,Dy2B4C,-0.63448,0.0,na,0.0,,,,,
JVASP-62327,NaAlBP2H3O10,-2.21714,6.235,8.426,0.0,,,,,
JVASP-62642,DyMnB4,-0.66091,0.0,na,0.0,,,,,
JVASP-90268,YAlCu,-0.51215,0.0,na,0.0,,,,,
JVASP-85948,CF2,-1.27225,4.854,7.9,0.2397,,,,,
JVASP-69161,BaFePt2,0.24496,0.0,0.0,0.8673,,,,,
JVASP-66126,BaCaHg,0.25679,0.0,0.0,0.6289,,,,,
JVASP-60794,CaB2H10N2,-0.45732,3.81,5.588,0.0,,,,,
JVASP-69367,BaRu2Pt,0.82576,0.0,0.0,1.2578,,,,,
JVASP-86062,KNiAu3C6N6,0.18748,1.338,na,0.2855,,,,,
JVASP-65562,BaSiTe2,-0.47371,0.0,0.0,0.4942,,,,,
JVASP-63522,YbNi4As2,-0.58267,0.0,na,0.0,,,,,
JVASP-69240,BaSc2Nb,0.61367,0.0,0.0,0.6137,,,,,
JVASP-65476,BaMgNi2,0.24512,0.0,na,0.4553,,,,,
JVASP-92220,KBiSe2,-0.79421,1.211,na,0.0018,,,,,
JVASP-91964,Ag3Sb,0.05125,0.0,na,0.0512,,,,,
JVASP-3285,AlAgSe2,-0.6495,1.219,2.359,0.0,,,,,
JVASP-88649,AsS3Cl3F6,-1.19639,0.0,na,0.0219,,,,,
JVASP-42747,V3O4F2,-2.65236,0.0,na,0.0571,,,,,
JVASP-66208,Ba4NbIr,1.29774,0.0,na,1.4772,,,,,
JVASP-66093,Ba2TiNi,0.66906,0.0,na,0.8856,,,,,
JVASP-69203,BaNi2Br,0.1669,0.0,na,1.05,,,,,
JVASP-61586,AuO2F6,-0.69474,0.383,0.557,0.0154,,,,,
JVASP-46464,Li2Mn3NbO8,-2.1154,0.0,na,0.0828,,,,,
JVASP-45854,Li3Nb2Fe3O10,-2.01822,0.0,na,0.1524,,,,,
JVASP-66245,Ba4TaIr,1.41979,0.0,na,1.6239,,,,,
JVASP-65789,BaLiBi2,-0.34622,0.0,0.0,0.3686,,,,,
JVASP-66128,Ba4PtRh,0.70712,0.0,na,1.0338,,,,,
JVASP-61319,Te2Au,-0.0634,0.0,na,0.0131,,,,,
JVASP-65248,TiBeW,-0.12604,0.0,0.0,0.1748,,,,,
JVASP-90559,NdCoAsO,-1.90035,0.0,na,0.0,,,,,
JVASP-69002,BaV2P,0.73258,0.0,0.0,1.3593,,,,,
JVASP-86295,ZrI3,-0.98366,0.0,na,0.0003,,,,,
JVASP-90010,PtS6N2,0.39534,0.463,na,0.545,,,,,
JVASP-65175,BeFePd,-0.20836,0.0,0.0,0.1664,,,,,
JVASP-66165,BaNbHg,1.3834,0.0,0.0,1.7269,,,,,
JVASP-69368,Ba2CdPb,-0.57483,0.0,na,0.0,,,,,
JVASP-69043,BaRu2Pt,0.8247,0.0,0.0,1.2568,,,,,
JVASP-69281,BaReCl2,-0.03712,0.0,na,1.9848,,,,,
JVASP-16220,Ti2CdC,-0.57808,0.0,na,0.0,,,,,
JVASP-69241,BaMgSe4,-0.37663,0.0,na,0.8334,,,,,
JVASP-90602,CeMg3,0.10761,0.0,na,0.1232,,,,,
JVASP-65744,BaTa2Se,0.73009,0.0,0.0,1.8261,,,,,
JVASP-66209,Ba4RuW,1.64755,0.0,na,1.7536,,,,,
JVASP-65477,BaMn2In,0.52273,0.0,na,0.7713,,,,,
JVASP-65634,BaTi2Ga,0.51456,0.0,0.0,0.81,,,,,
JVASP-91811,TiFeH2,0.13318,0.0,na,0.5127,,,,,
JVASP-85324,Sm3Ge5,-0.7529,0.0,na,0.0082,,,,,
JVASP-66285,KBaFe,1.0985,0.0,na,1.1026,,,,,
JVASP-66094,Ba4ReTc,1.79468,0.0,na,1.7951,,,,,
JVASP-66130,BaPbSe,-0.42635,0.0,na,1.0349,,,,,
JVASP-69162,KBaMg2,0.04851,0.0,na,0.1427,,,,,
JVASP-63060,B4W,0.37776,0.0,na,0.6633,,,,,
JVASP-86697,DyB6,-0.41596,0.0,na,0.0456,,,,,
JVASP-90192,ZrGaRh,-0.83516,0.0,na,0.0,,,,,
JVASP-65597,BaV2Cu,1.1465,0.0,0.0,1.2107,,,,,
JVASP-91914,LaMg3O4,-2.53788,0.0,na,0.5255,,,,,
JVASP-15057,Fe3Se4,-0.2524,0.0,na,0.0797,,,,,
JVASP-88230,NaCoPO4,-1.90468,0.788,na,0.0367,,,,,
JVASP-65790,Ba2NbCl,0.07412,0.0,na,1.0851,,,,,
JVASP-65407,BaZnCr2,0.80573,0.0,0.0,0.9566,,,,,
JVASP-66246,Ba4BiRu,0.66331,0.0,na,1.0977,,,,,
JVASP-69242,Ba2PbCl,-1.14269,0.0,na,0.2659,,,,,
JVASP-63423,LiMgAsO4,-2.14242,3.658,na,0.0,,,,,
JVASP-86931,La3Cu4P4O2,-1.51273,0.0,na,0.0,,,,,
JVASP-69204,Ba2ZnPb,-0.50853,0.0,0.0,0.005,,,,,
JVASP-66054,BaCaSn,-0.08966,0.098,0.32,0.6983,,,,,
JVASP-69369,K2BaZn,-0.04544,0.0,na,0.1097,,,,,
JVASP-68963,BaLiCa2,0.02875,0.0,0.0,0.0535,,,,,
JVASP-69323,Ba2CaTa,0.86476,0.0,0.0,0.8725,,,,,
JVASP-65672,Ba2HgCl,-0.97129,0.0,0.0,0.2973,,,,,
JVASP-86628,CeP5,-0.55972,0.0,na,0.0,,,,,
JVASP-91628,MgSiH2O4,-2.15886,5.227,6.654,0.1148,,,,,
JVASP-66286,Ba4GaPt,0.48193,0.0,na,0.9077,,,,,
JVASP-90656,InPd3,-0.4391,0.0,na,0.0,,,,,
JVASP-87304,MgSiO3,-2.77593,3.408,na,0.2511,,,,,
JVASP-65249,BeVIr4,0.37821,0.0,na,0.8178,,,,,
JVASP-91676,TiCuNi2,-0.35912,0.0,na,0.0283,,,,,
JVASP-92170,NdSb2Au,-0.7122,0.0,na,0.0437,,,,,
JVASP-66131,Ba4VFe,1.65317,0.0,na,1.7081,,,,,
JVASP-66095,Ba4ReRu,1.69691,0.0,na,1.7192,,,,,
JVASP-65289,Na4BeTc,1.07816,0.0,0.0,1.141,,,,,
JVASP-53085,LuAgS2,-1.41439,0.848,1.991,0.0,,,,,
JVASP-15697,ScSnAu,-0.70334,0.0,0.0,0.0784,,,,,
JVASP-69082,Ba2CrBi,-0.10842,0.0,0.0,0.5432,,,,,
JVASP-65745,BaCa2Sn,-0.36126,0.0,na,0.2339,,,,,
JVASP-89367,BaLiZr2F11,-3.90064,5.969,na,0.0,,,,,
JVASP-65598,BaBi2Cl,-1.07199,0.0,0.0,0.1992,,,,,
JVASP-63839,CaAu,-0.919,0.0,na,0.0,,,,,
JVASP-65711,BaNa2Hg,-0.07724,0.0,0.0,0.1865,,,,,
JVASP-65211,BeSeBr4,1.04373,0.0,0.0,1.6046,,,,,
JVASP-98086,Ba4Na2CaTi3Si4S2O26,-2.87935,2.181,na,0.0042,,,,,
JVASP-62798,LiBC,-0.47033,1.272,na,0.0,,,,,
JVASP-69243,Ba2CdSn,-0.6208,0.0,na,0.0265,,,,,
JVASP-98681,PPd6,-0.2771,0.0,na,0.0,,,,,
JVASP-66097,BaCdSb,-0.29876,0.0,na,0.449,,,,,
JVASP-53555,MnIn2Te4,-0.22398,0.0,0.0,0.0355,,,,,
JVASP-69205,Ba2TlSn,-0.57257,0.0,na,0.0608,,,,,
JVASP-66055,Ba4VP,1.04914,0.0,0.0,1.5097,,,,,
JVASP-91538,Nb2GaC,-0.52038,0.0,na,0.0,,,,,
JVASP-15076,FePd,-0.02286,0.0,0.0,0.0319,,,,,
JVASP-62936,BH2N,-0.56276,4.945,6.172,0.1323,,,,,
JVASP-66287,Ba4SbMo,0.78658,0.0,na,1.267,,,,,
JVASP-63714,TbCrB4,-0.66445,0.256,0.234,0.0,,,,,
JVASP-69122,BaYPd2,-0.53059,0.0,0.091,0.2698,,,,,
JVASP-66247,Ba4MoRu,1.56335,0.0,0.0,1.5775,,,,,
JVASP-66132,Ba4CoP,0.84339,0.0,na,1.3058,,,,,
JVASP-14917,AlSn,0.15279,0.0,na,0.1528,,,,,
JVASP-65563,BaMgCl2,-1.61043,0.054,0.435,0.4115,,,,,
JVASP-66326,BaNaCr,1.0043,0.0,0.0,1.04,,,,,
JVASP-65176,Mn4BeSb,0.41829,0.0,0.0,0.4771,,,,,
JVASP-69324,BaReBr2,0.16665,0.0,na,1.9329,,,,,
JVASP-86801,MgBIr,-0.45979,0.0,na,0.0,,,,,
JVASP-65531,BaSrTi2,0.92639,0.0,0.0,0.9447,,,,,
JVASP-85949,Li2TeO3,-1.76535,3.942,na,0.0228,,,,,
JVASP-43644,Cr2O3,-2.02263,0.556,na,0.0829,,,,,
JVASP-91719,MgAl,0.34592,0.0,na,0.3905,,,,,
JVASP-90786,MgTi3,0.13367,0.0,0.0,0.1337,,,,,
JVASP-65792,BaCd2Bi,-0.3045,0.0,na,0.1686,,,,,
JVASP-14579,BaSi,-0.48332,0.0,na,0.0,,,,,
JVASP-86403,SrCu2O3,-1.51705,0.0,na,0.0252,,,,,
JVASP-86755,Bi2Pd,-0.21958,0.0,na,0.0,,,,,
JVASP-98162,K2FeH4S2O10,-1.47414,0.104,na,0.0038,,,,,
JVASP-65674,BaBeIr2,0.74914,0.0,na,0.9034,,,,,
JVASP-66373,BaCrIn,0.8958,0.0,na,1.2272,,,,,
JVASP-66166,BaNaZn,0.2304,0.0,0.0,0.4356,,,,,
JVASP-88418,MgCu2O3,-1.43619,0.0,na,0.0633,,,,,
JVASP-14962,PuFe2,-0.25651,0.0,na,0.0,,,,,
JVASP-62131,ScAu4,-0.58501,0.0,0.0,0.0,,,,,
JVASP-52385,MoO2,-2.15613,0.0,na,0.0,,,,,
JVASP-66289,BaBiMo,1.24481,0.0,na,1.869,,,,,
JVASP-98433,K4TeP4H10O20,-1.70203,3.586,na,0.0226,,,,,
JVASP-15595,Ni3Sn2S2,-0.42032,0.0,na,0.0,,,,,
JVASP-63195,CaSiBHO5,-2.70338,5.626,na,0.0,,,,,
JVASP-62334,Na2Bi5AuO11,-1.18446,1.065,na,0.0763,,,,,
JVASP-66098,Ba4CuRu,1.10856,0.0,na,1.1513,,,,,
JVASP-63842,CeInAu2,-0.67413,0.0,na,0.0,,,,,
JVASP-86999,CaSb2,-0.67265,0.0,na,0.0,,,,,
JVASP-88898,LuCu2S2,-0.82349,0.0,na,0.3666,,,,,
JVASP-91866,Mg7Cd,-0.03431,0.0,na,0.0059,,,,,
JVASP-69244,BaSc4Fe,0.69411,0.0,0.0,0.7775,,,,,
JVASP-66248,Ba4NiP,0.64339,0.0,na,1.1039,,,,,
JVASP-69206,BaSc4Mn,0.86396,0.0,na,0.9089,,,,,
JVASP-66413,BaMgSn,0.09026,0.0,na,0.6057,,,,,
JVASP-65599,BaInPb2,-0.29306,0.0,na,0.1496,,,,,
JVASP-85602,BaIn4Ir,-0.37751,0.0,na,0.0,,,,,
JVASP-66133,Ba4SiW,1.22678,0.0,na,1.5189,,,,,
JVASP-69003,Ba2YSb,-0.17354,0.0,0.0,0.5472,,,,,
JVASP-61322,Al5BO9,-3.19087,5.018,na,0.004,,,,,
JVASP-15779,Ho,0.14817,0.0,0.0,0.0,,,,,
JVASP-90136,TiFeAs,-0.65486,0.0,na,0.0,,,,,
JVASP-52893,Li3H4Rh,-0.45716,0.611,na,0.0,,,,,
JVASP-69123,BaMgGa2,-0.12647,0.0,na,0.2713,,,,,
JVASP-66328,Ba4CoIr,1.24827,0.0,na,1.2502,,,,,
JVASP-91767,BiSe,-0.22697,0.0,na,0.1142,,,,,
JVASP-90878,HoSn3,-0.36407,0.0,na,0.0825,,,,,
JVASP-65564,Ba2LaMo,0.94568,0.0,na,0.9457,,,,,
JVASP-85488,LiFe6Ge4,-0.1464,0.0,na,0.0184,,,,,
JVASP-69325,BaBiSe4,-0.22732,0.0,na,0.687,,,,,
JVASP-66290,BaNaLa,0.74294,0.0,na,0.7786,,,,,
JVASP-91580,YNiGe2,-0.71304,0.0,na,0.0,,,,,
JVASP-86173,KCoAu3C6N6,0.18184,0.0,0.964,0.2798,,,,,
JVASP-86119,Fe2C,1.03225,0.0,na,1.0357,,,,,
JVASP-69283,BaTa2Be,1.28258,0.0,na,1.3904,,,,,
JVASP-65635,Ba2MgGa,-0.23906,0.0,0.0,0.0432,,,,,
JVASP-66414,BaZrTe,0.51645,0.0,na,1.7881,,,,,
JVASP-66167,Ba4FeHg,1.00968,0.0,na,1.1821,,,,,
JVASP-63535,NbNiB2,-0.57929,0.0,na,0.0,,,,,
JVASP-90011,K2PtO6,-0.82007,0.42,na,0.0705,,,,,
JVASP-66487,Ba4PRh,0.61477,0.0,na,1.1139,,,,,
JVASP-65212,BeGa4Sb,0.46046,0.0,na,0.51,,,,,
JVASP-65290,BeCoTe,0.3446,0.0,na,0.6473,,,,,
JVASP-65532,BaSrTl2,-0.46554,0.0,na,0.0293,,,,,
JVASP-48685,V3O4F2,-2.65222,0.0,na,0.0573,,,,,
JVASP-66374,Ba4ZrTc,1.42231,0.0,0.0,1.5055,,,,,
JVASP-86231,LiSn6Pd2,-0.31564,0.0,na,0.0137,,,,,
JVASP-86464,Nd3Co13B2,-0.17808,0.0,na,0.0,,,,,
JVASP-69163,BaCaBr2,-1.57027,0.0,0.0,0.2002,,,,,
JVASP-88049,Rb5Co2O4,-1.24003,0.168,na,0.0191,,,,,
JVASP-86874,Nb2C,-0.48502,0.0,na,0.0,,,,,
JVASP-65793,BaSe2Cl,-1.41087,0.0,na,0.1633,,,,,
JVASP-66249,Ba4TcRu,1.54352,0.0,na,1.5669,,,,,
JVASP-90402,Sr2Ti2Bi2OF2,-2.27597,0.0,na,0.0,,,,,
JVASP-88650,Hg3Cl4O,-0.42812,1.403,na,0.0072,,,,,
JVASP-85739,SmInPt,-0.88399,0.0,na,0.0172,,,,,
JVASP-66134,BaTcTe,0.96183,0.0,0.0,2.2335,,,,,
JVASP-66452,Ba4GaMo,1.16466,0.0,0.0,1.3023,,,,,
JVASP-69044,BaSc4Pt,0.29645,0.0,0.0,0.8201,,,,,
JVASP-3339,KAgSe,-0.72458,0.564,2.038,0.0,,,,,
JVASP-18438,AlPd5I2,-0.40091,0.0,na,0.0,,,,,
JVASP-66291,BaSbTe,-0.45319,0.0,na,0.8185,,,,,
JVASP-90734,ErFeGe2,-0.45876,0.0,na,0.0737,,,,,
JVASP-91677,SrMnPF,-2.01812,0.0,na,0.0,,,,,
JVASP-89095,Yb2CaO4,-2.81395,0.0,na,0.194,,,,,
JVASP-87849,Cr5S6,-0.66862,0.0,na,0.0246,,,,,
JVASP-86524,ScRe2O6,-2.26086,0.0,na,0.0,,,,,
JVASP-43616,LiFeSbO4,-1.57311,0.0,na,0.1165,,,,,
JVASP-63064,Sr3TaAs3O,-1.57818,1.324,1.732,0.0,,,,,
JVASP-66375,BaCdBi,-0.26077,0.0,na,0.3667,,,,,
JVASP-65600,BaZrTe2,-0.85129,0.0,0.0,0.5623,,,,,
JVASP-90064,Eu3S2F4,-3.38936,0.0,na,0.0574,,,,,
JVASP-66250,BaZrPb,0.93791,0.0,na,1.3712,,,,,
JVASP-68966,BaLiPd2,-0.3145,0.0,0.0,0.2416,,,,,
JVASP-86296,Zr5Sb4,-0.65847,0.0,na,0.0257,,,,,
JVASP-65409,BaBeV2,0.51899,0.0,0.0,0.5949,,,,,
JVASP-69164,Ba2ZrTe,-0.0601,0.0,na,0.8937,,,,,
JVASP-66489,BaGaBi,-0.22224,0.401,na,0.4789,,,,,
JVASP-65291,Hf4BeTe,0.6087,0.0,na,0.91,,,,,
JVASP-42834,LiCoO2,-1.67428,1.014,na,0.0226,,,,,
JVASP-66415,Ba4NbCo,1.3719,0.0,0.0,1.4382,,,,,
JVASP-89926,ScGeRh,-0.98966,0.0,na,0.008,,,,,
JVASP-85891,Nd3Ni13B2,-0.39868,0.0,na,0.0087,,,,,
JVASP-66056,BaTaBr,1.01616,0.0,0.0,2.1936,,,,,
JVASP-63715,AlTlCl4,-1.48783,4.78,na,0.0,,,,,
JVASP-69005,BaNaTl2,-0.26195,0.0,na,0.0763,,,,,
JVASP-90560,Mg3Ti,0.23249,0.0,na,0.2325,,,,,
JVASP-66168,Ba4YW,1.2659,0.0,na,1.3587,,,,,
JVASP-66210,Ba4TcTe,0.72222,0.0,0.0,1.3581,,,,,
JVASP-87071,LiGe,-0.30531,0.0,na,0.0155,,,,,
JVASP-65480,BaInIr2,0.1366,0.0,0.0,0.3851,,,,,
JVASP-86932,SrZn5,-0.251,0.0,na,0.0,,,,,
JVASP-66453,Ba4HfZr,1.11074,0.0,0.0,1.1152,,,,,
JVASP-66293,BaGeBi,0.02921,0.0,na,0.701,,,,,
JVASP-69245,BaNiPd2,0.03553,0.0,na,0.5225,,,,,
JVASP-86699,Ho5NiPb3,-0.55769,0.0,na,0.0,,,,,
JVASP-62513,H3AuC2NCl,-0.03986,3.443,3.946,0.2979,,,,,
JVASP-48415,V3O5F,-2.63503,0.0,na,0.0114,,,,,
JVASP-90658,EuAs3,-0.67114,0.0,na,0.0063,,,,,
JVASP-90603,MgCd3,-0.05251,0.0,na,0.0183,,,,,
JVASP-65213,MgBeCu4,0.09464,0.0,na,0.2112,,,,,
JVASP-69083,BaVHg2,0.38399,0.0,na,0.6715,,,,,
JVASP-65533,BaSn2Se,-0.43266,0.0,na,0.6633,,,,,
JVASP-53265,AlFe2Mo,-0.21341,0.0,0.0,0.0,,,,,
JVASP-85400,UFeGe,-0.37633,0.0,na,0.0,,,,,
JVASP-87955,VSO5,-1.80553,0.258,na,0.0,,,,,
JVASP-3288,AlAgTe2,-0.36204,1.074,1.994,0.0,,,,,
JVASP-65636,BaZrSe2,-1.20563,0.0,na,0.6032,,,,,
JVASP-91918,Ca3Zn,-0.01399,0.0,na,0.1675,,,,,
JVASP-86063,Y3Ni13B2,-0.4621,0.0,na,0.0024,,,,,
JVASP-3876,Rb2ZrCl6,-2.07809,3.488,4.002,0.0,,,,,
JVASP-63538,ZrAl8Fe4,-0.43885,0.0,na,0.0,,,,,
JVASP-66099,BaLiCd,0.20217,0.0,0.0,0.4995,,,,,
JVASP-66490,Ba4ScRe,1.37404,0.0,na,1.4696,,,,,
JVASP-66376,Ba4SnW,0.95688,0.0,na,1.3924,,,,,
JVASP-62940,BN,-1.38443,4.46,6.114,0.0044,,,,,
JVASP-66251,Ba4TiTc,1.41709,0.0,0.0,1.5841,,,,,
JVASP-66417,Ba4CoPt,0.95251,0.0,na,1.2425,,,,,
JVASP-65250,TaBeNb,0.04954,0.0,0.0,0.1851,,,,,
JVASP-65410,BaMg2Mn,0.26767,0.0,na,0.3597,,,,,
JVASP-69370,BaSi2Mo,0.94675,0.0,0.0,1.3502,,,,,
JVASP-69006,BaInTe2,-0.92005,0.0,na,0.1903,,,,,
JVASP-65746,BaP2Br,-0.40531,0.0,0.0,0.8844,,,,,
JVASP-68967,BaSiCl2,-1.03157,0.0,na,0.9916,,,,,
JVASP-65675,BaRu2Cl,0.88743,0.0,0.0,1.8984,,,,,
JVASP-63201,YbAlB4,-0.23246,0.0,0.0,0.222,,,,,
JVASP-18785,ZnPt3,-0.31473,0.0,0.0,0.0148,,,,,
JVASP-66329,BaTaCl,0.95058,0.0,0.0,2.2986,,,,,
JVASP-66212,Ba4MnRh,1.36841,0.0,na,1.4085,,,,,
JVASP-65178,K4BeNb,1.31649,0.0,0.0,1.3851,,,,,
JVASP-63844,UB2,-0.57999,0.0,0.0,0.0,,,,,
JVASP-92171,VIr,-0.5272,0.0,na,0.0212,,,,,
JVASP-66294,Ba4TiRe,1.63028,0.0,na,1.7763,,,,,
JVASP-66454,Ba4FeW,1.76774,0.0,na,1.8611,,,,,
JVASP-66169,Ba4InRe,1.13498,0.0,na,1.3385,,,,,
JVASP-69208,BaNaHg2,-0.25444,0.0,na,0.092,,,,,
JVASP-65565,Ba2MgMn,0.32813,0.0,0.0,0.4038,,,,,
JVASP-90831,MnTe,0.01226,0.0,0.0,0.1532,,,,,
JVASP-62144,PAuCl8,-0.48514,1.727,2.217,0.0002,,,,,
JVASP-91629,LiPrSn2,-0.60879,0.0,na,0.0119,,,,,
JVASP-65485,BaZnPt2,-0.42276,0.0,na,0.2865,,,,,
JVASP-63065,DyB4Rh4,-0.56816,0.0,na,0.0026,,,,,
JVASP-69124,BaLi2Fe,0.72596,0.0,na,0.7569,,,,,
JVASP-69326,Ba2ScCd,0.11122,0.0,0.0,0.3271,,,,,
JVASP-87305,MgSiO3,-2.88874,4.726,na,0.1383,,,,,
JVASP-69248,BaSrMg2,-0.09376,0.0,na,0.0447,,,,,
JVASP-69165,BaZnIr2,0.48426,0.0,na,0.6351,,,,,
JVASP-89379,RbNi2F6,-2.09986,0.0,na,0.0088,,,,,
JVASP-66528,BaTlZn,0.10709,0.0,na,0.4938,,,,,
JVASP-52216,Sc5Cu5O13,-2.34196,0.003,na,0.0498,,,,,
JVASP-86325,BaSnO3,-2.39288,0.578,2.166,0.0,,,,,
JVASP-91867,HfMg7,0.09869,0.0,na,0.0987,,,,,
JVASP-88921,La3PbC,-0.48857,0.0,na,0.0,,,,,
JVASP-66135,BaTeCl,-1.43476,0.0,0.0,0.5491,,,,,
JVASP-69084,BaSc4Co,0.72293,0.0,na,0.9069,,,,,
JVASP-66491,Ba4HgRu,0.9002,0.0,na,1.072,,,,,
JVASP-66100,Ba4IrBr,0.42306,0.0,na,1.0118,,,,,
JVASP-66573,BaZrCl,0.52469,0.0,0.0,1.8727,,,,,
JVASP-43552,FeO,-1.09786,0.0,0.0,0.1108,,,,,
JVASP-91965,CaPbF6,-2.7603,3.477,5.106,0.0,,,,,
JVASP-90492,CoAs2O6,-1.15132,0.21,na,0.0001,,,,,
JVASP-90270,RbBe2BO3F2,-3.03793,6.354,9.526,0.0265,,,,,
JVASP-90787,MgTi,0.06486,0.0,na,0.0649,,,,,
JVASP-14555,DyHg,-0.38695,0.0,0.0,0.0052,,,,,
JVASP-19904,LiTl,-0.24469,0.0,na,0.0,,,,,
JVASP-14631,Zr2Pd,-0.50845,0.0,0.0,0.0,,,,,
JVASP-92221,LiNdS2,-1.92481,1.868,na,0.05,,,,,
JVASP-61327,Al2SiO5,-3.17031,5.923,7.254,0.0,,,,,
JVASP-65747,BaLi4Cr,0.66756,0.0,na,0.7076,,,,,
JVASP-66377,Ba4PdRu,0.99487,0.0,na,1.2296,,,,,
JVASP-65534,Ba2ZnIn,-0.37871,0.0,0.0,0.0259,,,,,
JVASP-86629,SmB2Rh2C,-0.62897,0.0,na,0.0,,,,,
JVASP-66252,Ba4SiOs,1.17246,0.0,na,1.3718,,,,,
JVASP-69045,BaVTe2,-0.58254,0.0,0.0,0.5268,,,,,
JVASP-63424,Y3Au2,-0.78425,0.0,0.0,0.029,,,,,
JVASP-66295,Ba4TcPd,1.11019,0.0,na,1.345,,,,,
JVASP-66455,Ba4BeOs,1.41064,0.0,na,1.4106,,,,,
JVASP-66418,Ba4SnMo,0.86139,0.0,na,1.2041,,,,,
JVASP-90015,PuAlNi,-0.106,0.0,na,0.4986,,,,,
JVASP-90137,SmMgAg,-0.29189,0.0,na,0.0,,,,,
JVASP-86120,Pr2Ni2I,-0.74734,0.0,na,0.0001,,,,,
JVASP-65677,BaGaBr2,-1.23926,0.0,na,0.527,,,,,
JVASP-65795,BaNa2Si,0.18102,0.0,0.0,0.4288,,,,,
JVASP-15596,MnFe2Si,-0.27804,0.0,0.0,0.0,,,,,
JVASP-62335,DyFe2B2,-0.48833,0.0,0.0,0.0051,,,,,
JVASP-14592,Te,0.03832,0.0,0.0,0.0,,,,,
JVASP-65637,BaTlBr2,-1.36607,0.0,3.715,0.4002,,,,,
JVASP-66529,Ba4SiP,0.46864,0.0,na,1.1284,,,,,
JVASP-69284,KBaRu2,1.14811,0.0,0.0,1.1503,,,,,
JVASP-69210,BaBe2Hg,0.79739,0.0,na,1.055,,,,,
JVASP-69166,BaV2Sn,0.74551,0.0,0.0,1.1317,,,,,
JVASP-66136,Ba4OsPd,1.1201,0.0,na,1.3549,,,,,
JVASP-69250,BaTcBr2,-0.27788,0.0,na,1.4884,,,,,
JVASP-66330,Ba4YRu,1.05058,0.0,0.0,1.1703,,,,,
JVASP-69008,BaP2Ir,0.38665,0.0,na,1.3025,,,,,
JVASP-65488,BaHf2Ni,0.03973,0.0,na,0.319,,,,,
JVASP-14963,NpAl3,-0.20197,0.0,na,0.0,,,,,
JVASP-87000,K2Ag4S3,-0.56321,0.107,na,0.0,,,,,
JVASP-88749,LiAlMo2O8,-2.45144,3.627,na,0.0,,,,,
JVASP-53303,MnTe,0.06185,0.0,0.0,0.2028,,,,,
JVASP-85685,EuMgH4,-0.42558,0.0,0.0,0.0,,,,,
JVASP-88050,SiO2,-2.83947,5.603,na,0.0618,,,,,
JVASP-63554,CaSiBHO5,-2.70338,5.627,na,0.0,,,,,
JVASP-65714,BaHfW2,1.45992,0.0,na,1.7383,,,,,
JVASP-65412,BaZnP2,-0.09849,0.0,na,0.6923,,,,,
JVASP-65601,BaSi2Rh,0.35028,0.0,0.0,1.024,,,,,
JVASP-85326,EuCd,-0.35767,0.0,0.0,0.0,,,,,
JVASP-66575,Ba4VOs,1.68078,0.0,na,1.7662,,,,,
JVASP-66102,BaNaY,0.84175,0.0,na,0.8775,,,,,
JVASP-91768,SrN,-0.35226,0.0,na,0.3473,,,,,
JVASP-91813,Mn3Pd5,-0.01493,0.0,na,0.1606,,,,,
JVASP-65292,K4BeP,0.65587,0.0,0.289,0.954,,,,,
JVASP-63069,PuB2Rh3,-0.33349,0.0,na,0.0258,,,,,
JVASP-90880,LaCuGe2,-0.63657,0.0,na,0.0,,,,,
JVASP-85604,Ce3MnBi5,-0.42066,0.0,na,0.135,,,,,
JVASP-90193,DySnPt,-1.10773,0.0,na,0.0,,,,,
JVASP-43964,Na3FeO4,-1.61957,0.78,1.085,0.0,,,,,
JVASP-69046,Ba2InTe,-0.84879,0.0,na,0.3535,,,,,
JVASP-66492,Ba4HgOs,1.02796,0.0,na,1.1997,,,,,
JVASP-62149,NiAsPd,-0.26263,0.0,na,0.0006,,,,,
JVASP-69327,BaCuTe2,-0.4163,0.0,na,0.5556,,,,,
JVASP-66057,Ba4MgIr,0.78557,0.0,0.0,0.9017,,,,,
JVASP-15307,YbSnPd2,-0.85254,0.0,0.0,0.0,,,,,
JVASP-12148,CoSe,-0.25744,0.0,na,0.0241,,,,,
JVASP-85893,UGeTe,-0.522,0.0,na,0.0,,,,,