jid,formula,formation_energy_per_atom,optb88vdw_bandgap,mbj_bandgap,ehull,spacegroup_number,natoms,volume,bulk_modulus_kv,shear_modulus_gv
JVASP-63690,BN,-1.38464,4.267,5.801,0.0042,,,,,
JVASP-68129,BeNbSi2,-0.05978,0.0,0.0,0.2696,,,,,
JVASP-68725,BeCdCl2,0.06483,0.0,na,1.1866,,,,,
JVASP-67214,HfMnBe,-0.02765,0.0,0.0,0.2196,,,,,
JVASP-87133,UTe2,-0.69387,0.0,na,0.0,,,,,
JVASP-88283,Na2ZnP2O7,-2.24729,4.334,na,0.0,,,,,
JVASP-86648,RhN2,0.22351,0.0,na,0.2338,,,,,
JVASP-87985,Li7TaO6,-2.41258,4.448,na,0.0505,,,,,
JVASP-90030,HfPOs,-0.85164,0.0,na,0.0377,,,,,
JVASP-85962,YbNdS3,-1.91532,0.0,na,0.2234,,,,,
JVASP-18516,Hf2CoP,-0.93395,0.0,na,0.0,,,,,
JVASP-73888,LiBeW2,0.18249,0.0,0.0,0.4978,,,,,
JVASP-67550,Be2RhSe,-0.09415,0.0,na,0.6706,,,,,
JVASP-67980,Sr2HfBe,0.84059,0.0,0.0,0.924,,,,,
JVASP-68192,LaBeV2,0.57447,0.0,0.0,0.6503,,,,,
JVASP-90612,InRu3,0.33991,0.0,na,0.3807,,,,,
JVASP-67462,TaBeTc,0.12419,0.0,0.0,0.5253,,,,,
JVASP-66814,MnBe2Tc,0.01841,0.0,na,0.1948,,,,,
JVASP-67790,SrBe2P,0.39286,0.0,na,0.9987,,,,,
JVASP-62567,BaNaB9O15,-2.65985,5.561,na,0.0,,,,,
JVASP-86485,LiGaTe2,-0.63936,1.574,2.36,0.0,,,,,
JVASP-73992,BeSiTc2,-0.28092,0.0,na,0.0,,,,,
JVASP-75491,TaTc2As,0.24821,0.0,na,0.5932,,,,,
JVASP-67378,Be2CrPb,0.54481,0.0,na,0.7019,,,,,
JVASP-68491,CaBe2Cr,0.28582,0.0,na,0.4471,,,,,
JVASP-75531,TaAsW,0.51057,0.0,na,1.0318,,,,,
JVASP-28506,Te2MoW2Se2S2,-0.47542,0.266,na,0.1901,,,,,
JVASP-49846,Tb3TaO7,-3.64292,3.418,na,0.0254,,,,,
JVASP-92233,ZrFeF6,-3.15604,0.0,0.0,0.0131,,,,,
JVASP-14072,ErF3,-4.37655,8.094,10.006,0.0,,,,,
JVASP-68660,Be2CdCu,0.16323,0.0,na,0.2749,,,,,
JVASP-89944,USnRh,-0.45515,0.0,na,0.0,,,,,
JVASP-68551,LiBeNb,0.38064,0.0,na,0.5067,,,,,
JVASP-15598,MgSnAu,-0.46407,0.0,na,0.0,,,,,
JVASP-66981,Be2VCo,-0.18946,0.0,na,0.085,,,,,
JVASP-91549,TbNiBC,-0.58708,0.0,na,0.0,,,,,
JVASP-67828,BeReNi4,0.2293,0.0,na,0.4094,,,,,
JVASP-89179,KPd2F5,-1.71715,0.344,na,0.0022,,,,,
JVASP-67064,TaBe2Ni,-0.15407,0.0,na,0.2661,,,,,
JVASP-73569,Be2CrSe,0.23538,0.0,0.0,0.7791,,,,,
JVASP-67710,ScBeZn2,-0.15413,0.0,0.0,0.1507,,,,,
JVASP-18580,Y3Al,-0.22685,0.0,0.0,0.0374,,,,,
JVASP-3561,TlIO3,-0.62973,2.867,3.31,0.0,,,,,
JVASP-89614,NaHgCl3,-1.02318,2.536,na,0.0451,,,,,
JVASP-63273,DyB4Rh4,-0.56819,0.0,na,0.0025,,,,,
JVASP-87013,Pd4S,-0.17077,0.0,na,0.0029,,,,,
JVASP-90419,CrTe,0.02768,0.0,na,0.1664,,,,,
JVASP-85344,EuMg2Sb2,-0.6655,0.0,na,0.0,,,,,
JVASP-15815,ThZn2,-0.30162,0.0,0.0,0.0,,,,,
JVASP-90798,PbS,-0.63993,0.814,1.482,0.016,,,,,
JVASP-66912,BeZnCl,-0.16086,0.0,0.0,0.5854,,,,,
JVASP-86884,Tl2CdSnTe4,-0.3093,0.329,0.777,0.0053,,,,,
JVASP-72973,Be2GeP,0.30336,0.0,na,0.4715,,,,,
JVASP-85832,CaGe2,-0.55681,0.0,na,0.0,,,,,
JVASP-67284,BeTlPd,0.07021,0.0,na,0.4437,,,,,
JVASP-68377,Be2SbW,0.50919,0.0,na,0.7217,,,,,
JVASP-68312,BeFeTe2,0.70252,0.0,na,0.9799,,,,,
JVASP-68787,Sr2BeRh,0.27322,0.0,na,0.5728,,,,,
JVASP-67868,CaBeHg2,0.16972,0.0,na,0.4385,,,,,
JVASP-67627,BeTlCd4,0.42674,0.0,na,0.4334,,,,,
JVASP-73889,BeSn2Mo,0.36807,0.0,na,0.4785,,,,,
JVASP-67553,K4BePb,0.56782,0.0,0.0,0.6292,,,,,
JVASP-67921,Ti2BeCo,-0.14981,0.0,0.0,0.164,,,,,
JVASP-68727,BePb2Cl,0.23396,0.0,na,0.7936,,,,,
JVASP-91978,MoF3,-2.32895,0.893,na,0.0,,,,,
JVASP-42263,CrO,-1.50484,0.0,0.0,0.2498,,,,,
JVASP-43565,Li3V2P4H2O16,-2.2573,0.014,0.0,0.0002,,,,,
JVASP-88073,PrS2,-1.92578,0.513,1.258,0.0,,,,,
JVASP-90748,AgN,1.59348,0.0,na,1.6012,,,,,
JVASP-63515,CeAs12Os4,-0.34183,0.0,na,0.0,,,,,
JVASP-63014,CaSiBHO5,-2.70338,5.626,na,0.0,,,,,
JVASP-73998,CaBeRh2,-0.19681,0.0,na,0.3178,,,,,
JVASP-66744,Be2CuOs,0.03559,0.0,na,0.1448,,,,,
JVASP-68193,BeV2Cl,0.52717,0.0,0.0,1.1248,,,,,
JVASP-16142,ScGeAu,-0.73745,0.0,0.0,0.0,,,,,
JVASP-86709,K2NbCl6,-1.68831,0.0,0.0,0.0,,,,,
JVASP-42611,Cu2S,0.03364,0.0,0.0,0.2091,,,,,
JVASP-88979,Lu2Al3Co,-0.52099,0.0,na,0.0,,,,,
JVASP-68492,Be2CoCl,0.07186,0.0,na,0.8341,,,,,
JVASP-67589,BeGaTc2,-0.00355,0.0,0.0,0.1268,,,,,
JVASP-75452,AsPtAu,0.35344,0.0,0.0,0.5945,,,,,
JVASP-74063,BeV2Os,-0.18646,0.0,na,0.1095,,,,,
JVASP-90570,YMg,-0.0432,0.0,na,0.0615,,,,,
JVASP-88454,Ba3SrNb2O9,-3.06924,3.243,na,0.0295,,,,,
JVASP-63696,Na3AsS3,-0.96667,2.541,na,0.0,,,,,
JVASP-15439,HoGe2Pd2,-0.74707,0.0,na,0.0275,,,,,
JVASP-62679,V5SiB2,-0.63925,0.0,na,0.0,,,,,
JVASP-68606,BeGePb2,0.58702,0.0,na,0.587,,,,,
JVASP-43659,LiMnPO4,-2.19008,1.289,na,0.0285,,,,,
JVASP-73572,MnBe2Co,-0.2116,0.0,na,0.0356,,,,,
JVASP-48902,Li2Co3O6,-1.53642,0.0,na,0.0303,,,,,
JVASP-68920,Zr2BeCl,0.06754,0.0,0.0,0.8197,,,,,
JVASP-91778,PbS,-0.52569,0.654,1.51,0.1303,,,,,
JVASP-68426,Be2InTc,0.12763,0.0,0.0,0.2932,,,,,
JVASP-73007,HfBe2Te,0.21591,0.0,na,0.714,,,,,
JVASP-90097,NiPPd,-0.40705,0.0,na,0.0285,,,,,
JVASP-48712,Mn4O3F5,-2.17403,0.0,na,0.0,,,,,
JVASP-68313,CaBeMo,0.80401,0.0,na,0.9569,,,,,
JVASP-537,TaTe2,-0.34619,0.0,0.0,0.0021,,,,,
JVASP-3678,Rb2PbCl6,-1.37744,0.902,2.021,0.0,,,,,
JVASP-66989,TaBe2Rh,-0.2583,0.0,na,0.1593,,,,,
JVASP-68046,KSc2Be,0.35983,0.0,0.0,0.4248,,,,,
JVASP-67217,Be2GaFe,-0.02684,0.0,na,0.1981,,,,,
JVASP-75533,TiAsSe,0.10184,0.0,na,1.0022,,,,,
JVASP-68857,Be2FeBr,0.33809,0.0,na,0.8904,,,,,
JVASP-67137,Be2MoCl,0.34036,0.0,0.2,1.0657,,,,,
JVASP-62568,BN,-1.37181,3.652,5.337,0.017,,,,,
JVASP-67981,BeFePd2,-0.08327,0.0,na,0.2868,,,,,
JVASP-68552,Be2GaIr,-0.30192,0.0,0.0,0.119,,,,,
JVASP-63278,GaAsO4,-1.52687,3.198,5.198,0.0,,,,,
JVASP-73890,BeTc2Ge,-0.12777,0.0,na,0.0066,,,,,
JVASP-66819,BeFePt,-0.09511,0.0,0.0,0.2198,,,,,
JVASP-67829,BeInTc2,0.01742,0.0,na,0.1009,,,,,
JVASP-85904,Li2ZrN2,-1.32995,1.792,na,0.0,,,,,
JVASP-63516,KZnAs,-0.54478,0.319,na,0.0,,,,,
JVASP-86258,TeI,-0.06966,0.732,na,0.0044,,,,,
JVASP-86184,LuAg4,-0.25456,0.0,0.0,0.0002,,,,,
JVASP-91927,GaFe3,-0.09571,0.0,na,0.0021,,,,,
JVASP-75492,AsPtRh2,0.11753,0.0,0.0,0.4029,,,,,
JVASP-91879,Mg7Zn,-0.01014,0.0,na,0.0171,,,,,
JVASP-90674,K,0.03426,0.0,na,0.0,,,,,
JVASP-14581,TmCd,-0.33449,0.0,0.0,0.0,,,,,
JVASP-66747,LiHfBe2,0.20707,0.0,na,0.3741,,,,,
JVASP-43435,Li2VCrO4,-2.31427,0.062,na,0.0663,,,,,
JVASP-67749,BeNbTl,0.45262,0.0,0.0,0.5783,,,,,
JVASP-68788,BePt2Cl,0.38776,0.0,0.0,1.0869,,,,,
JVASP-63365,PuB4Os,-0.53947,0.0,na,0.0,,,,,
JVASP-68729,BeMoPd,0.08384,0.0,0.0,0.4574,,,,,
JVASP-85627,Pu2InNi2,-0.41365,0.0,0.0,0.0,,,,,
JVASP-75454,SiAsPd2,0.10463,0.0,na,0.5635,,,,,
JVASP-67285,Be2InSe,0.23445,0.0,na,0.7009,,,,,
JVASP-12150,ScHO2,-2.65689,4.26,5.324,0.1157,,,,,
JVASP-68245,MnBeRh2,-0.18409,0.0,0.0,0.1198,,,,,
JVASP-73011,Be2CdRe,0.36723,0.0,na,0.6385,,,,,
JVASP-52578,CeTh2O6,-4.00696,2.131,na,0.032,,,,,
JVASP-85757,AsI2F6,-1.36557,0.604,na,0.2735,,,,,
JVASP-91640,YbCuSb2,-0.54454,0.0,na,0.0401,,,,,
JVASP-75534,ReAsPd2,0.18971,0.0,na,0.4254,,,,,
JVASP-86335,LaMg,-0.11355,0.0,na,0.0,,,,,
JVASP-73592,MgBe2Sn,0.5002,0.0,na,0.5965,,,,,
JVASP-67381,BeFeNi,-0.22509,0.0,na,0.0878,,,,,
JVASP-16017,NdCuSi,-0.62264,0.0,na,0.0,,,,,
JVASP-14919,Li2PrAs2,-0.94011,0.0,na,0.0996,,,,,
JVASP-87082,TiFeSi,-0.69568,0.0,0.0,0.0,,,,,
JVASP-68314,ZrBe2Pb,0.33473,0.0,na,0.5492,,,,,
JVASP-67711,BeInPb,0.47394,0.0,na,0.4794,,,,,
JVASP-63018,Li2BF5,-3.06438,7.873,na,0.03,,,,,
JVASP-599,TlCrTe2,-0.22916,0.0,0.0,0.0,,,,,
JVASP-53051,Cr2AsSe,-0.03569,0.0,na,0.2526,,,,,
JVASP-86081,Dy2Sn5,-0.52553,0.0,na,0.0,,,,,
JVASP-68553,ScBe2Cl,0.27161,0.0,na,1.155,,,,,
JVASP-86539,Na2PdSe2O8,-1.02547,1.663,na,0.0244,,,,,
JVASP-90889,KRhF6,-1.98521,0.0,0.0,0.0,,,,,
JVASP-75493,LiSnAs,-0.23813,0.123,na,0.1399,,,,,
JVASP-68730,ScBeSe,-0.36561,0.0,na,0.7554,,,,,
JVASP-62570,UBRh3,-0.55037,0.0,na,0.0732,,,,,
JVASP-68381,CaBe2Ru,-0.09814,0.0,na,0.1759,,,,,
JVASP-67791,MnBeV,0.04483,0.0,0.0,0.3004,,,,,
JVASP-67669,BeGeSb,0.46778,0.0,na,0.4678,,,,,
JVASP-73893,BeCdPd2,-0.25416,0.0,0.0,0.2288,,,,,
JVASP-68131,BeInW2,0.29708,0.0,0.0,0.6134,,,,,
JVASP-75535,Re2AsRu,0.48117,0.0,na,0.6391,,,,,
JVASP-67869,BeZn2Cu,0.06673,0.0,na,0.1471,,,,,
JVASP-67830,BeInIr2,-0.04922,0.0,na,0.1558,,,,,
JVASP-68662,Mg2BeCl,0.00515,0.0,0.0,0.7533,,,,,
JVASP-91824,Mg3CdO4,-2.40304,1.42,2.927,0.1657,,,,,
JVASP-90158,ThAlPd,-0.82337,0.0,na,-0.0,,,,,
JVASP-67923,CaSc2Be,0.14447,0.0,0.0,0.2115,,,,,
JVASP-50346,Zr2N2O,-2.2824,2.042,na,0.0551,,,,,
JVASP-67220,Be2NbPt,-0.38747,0.0,na,0.1292,,,,,
JVASP-42758,Na2CoO3,-1.34235,0.0,na,0.1504,,,,,
JVASP-67753,LaBePt2,-0.57637,0.0,na,0.3959,,,,,
JVASP-85417,Mn2As,-0.05715,0.0,na,0.0799,,,,,
JVASP-86419,AuO2F6,-0.69391,0.397,0.551,0.0162,,,,,
JVASP-88784,HoAl3Pb2O8,-2.80751,3.047,na,0.0416,,,,,
JVASP-90291,BaDy2CoO5,-2.96884,0.0,na,0.0327,,,,,
JVASP-73609,Be2CrSb,0.46032,0.0,0.0,0.6174,,,,,
JVASP-22710,LiNiF3,-2.19199,0.0,0.002,0.1495,,,,,
JVASP-87988,BPdIr,-0.24524,0.0,na,0.0,,,,,
JVASP-68049,CaBePt,-0.78742,0.0,na,0.0007,,,,,
JVASP-68315,BeCdW,0.35855,0.0,na,0.5963,,,,,
JVASP-73033,Be2FePb,0.59964,0.0,0.0,0.8014,,,,,
JVASP-67554,BeCdFe2,0.19838,0.0,0.0,0.3031,,,,,
JVASP-67288,LiBe2Fe,0.11176,0.0,na,0.3137,,,,,
JVASP-90420,MgBr2N6,2.04369,0.0,na,2.5859,,,,,
JVASP-63698,Fe2B,0.07847,0.0,na,0.3628,,,,,
JVASP-90614,BaMn2O5,-2.05518,0.0,na,0.1754,,,,,
JVASP-68858,BeNbSb2,0.49095,0.0,na,0.7055,,,,,
JVASP-74001,BeInMo2,0.21568,0.0,0.0,0.3275,,,,,
JVASP-67628,BeGeTe2,0.06162,0.0,0.0,0.3283,,,,,
JVASP-67068,CaBeCd,0.10223,0.0,na,0.4228,,,,,
JVASP-86136,LuRu2,-0.42269,0.0,na,0.0,,,,,
JVASP-66919,HfBeTc,-0.21379,0.0,0.0,0.196,,,,,
JVASP-91687,ErCuSb2,-0.56977,0.0,na,0.0,,,,,
JVASP-68923,BeTl2Cd,0.53024,0.0,na,0.5327,,,,,
JVASP-66991,CaBeNb,0.38917,0.0,0.0,0.5205,,,,,
JVASP-67984,HfMg2Be,0.27457,0.0,na,0.358,,,,,
JVASP-67382,Be2SnPt,-0.068,0.0,na,0.4258,,,,,
JVASP-28568,Te2Mo2WSe2S2,-0.5004,0.033,0.127,0.1519,,,,,
JVASP-90031,Ba3Cd2As4,-0.90884,0.0,na,0.0019,,,,,
JVASP-75455,Mg2CoAs,0.05057,0.0,0.0,0.5163,,,,,
JVASP-86815,Li2ZnGe,-0.37881,0.0,na,0.0394,,,,,
JVASP-67671,MnBeTc2,-0.01563,0.0,na,0.0755,,,,,
JVASP-89945,PrAlNi,-0.54262,0.0,na,0.0,,,,,
JVASP-62681,BN,-1.38422,4.435,6.114,0.0046,,,,,
JVASP-88681,SrAl2SiN2O3,-2.53185,4.099,na,0.0088,,,,,
JVASP-63026,TbSnAu,-0.74159,0.0,na,0.0995,,,,,
JVASP-86310,TiNi,-0.39996,0.0,na,0.0331,,,,,
JVASP-68494,MnBe2Bi,0.6064,0.0,na,0.7828,,,,,
JVASP-68382,Be2CrCl,0.37736,0.0,na,1.0548,,,,,
JVASP-87136,MgSi2O5,-2.84412,5.222,na,0.1358,,,,,
JVASP-68554,CaBe2Pb,0.44013,0.0,na,0.7668,,,,,
JVASP-1723,RbErSe2,-1.83639,1.965,2.927,0.0,,,,,
JVASP-68665,Be2ReGe,0.37649,0.0,na,0.6453,,,,,
JVASP-63280,PrCrB4,-0.50011,0.169,na,0.0153,,,,,
JVASP-74064,Mn2BeCd,0.15192,0.0,0.0,0.2426,,,,,
JVASP-67590,Ti2BeFe,-0.15681,0.0,na,0.1666,,,,,
JVASP-73051,Be2TlBr,0.89615,0.0,na,1.3413,,,,,
JVASP-16116,ScSiAu,-0.73684,0.0,0.0,0.0,,,,,
JVASP-3567,BiIO,-1.07756,1.576,2.369,0.0116,,,,,
JVASP-88980,ThAl2,-0.41161,0.0,na,0.0748,,,,,
JVASP-91591,TbFeAsO,-1.93672,0.0,na,0.0,,,,,
JVASP-75568,MnSbAs,0.15448,0.0,na,0.2916,,,,,
JVASP-18872,SmGe2Pd2,-0.79517,0.0,na,0.0,,,,,
JVASP-87880,Ca6FeN5,-1.00713,0.0,na,0.0,,,,,
JVASP-15645,HoCo2Si2,-0.79553,0.0,0.0,0.0,,,,,
JVASP-67139,Be2VTe,0.36626,0.0,0.0,0.6634,,,,,
JVASP-68609,HfBePb2,0.41983,0.0,na,0.5122,,,,,
JVASP-91979,Zn7Mo,-0.00819,0.0,na,0.0389,,,,,
JVASP-88075,Na3EuC3O9,-2.1096,5.063,na,0.0,,,,,
JVASP-91550,GaMo2C,-0.12538,0.0,na,0.0056,,,,,
JVASP-14558,CaSn,-0.72991,0.0,na,0.0,,,,,
JVASP-14795,PuB2,-0.54055,0.0,na,0.0,,,,,
JVASP-68431,KBe2Tc,0.3463,0.0,na,0.5127,,,,,
JVASP-68316,BeSbTe,0.1655,0.0,na,0.4475,,,,,
JVASP-86486,Ho2Mo2C3,-0.4541,0.0,na,0.0,,,,,
JVASP-74003,KBeTe2,-0.27662,0.0,na,0.3894,,,,,
JVASP-75494,AsPdCl,0.63696,0.0,na,1.1189,,,,,
JVASP-67792,Be2GaCl,0.54988,0.0,na,1.1095,,,,,
JVASP-62854,MgB2H8,-0.23349,6.023,8.454,0.0,,,,,
JVASP-67221,Be2CuTc,-0.03432,0.0,na,0.13,,,,,
JVASP-86885,Al5C3N,-0.50649,1.029,na,0.0497,,,,,
JVASP-73083,BeTePd,0.01016,0.0,0.0,0.4607,,,,,
JVASP-48966,Li2MnO2F,-2.29909,0.24,na,0.0,,,,,
JVASP-89182,Mg2SiO4,-3.05017,5.063,na,0.0,,,,,
JVASP-87017,V3S,-0.5517,0.0,na,0.0,,,,,
JVASP-42342,Fe4O5F3,-1.63561,0.0,na,0.1017,,,,,
JVASP-67754,ZrBeSn,0.0329,0.0,na,0.4223,,,,,
JVASP-90799,Cu3N,0.56472,0.0,na,0.5686,,,,,
JVASP-68132,BeCoTc2,0.01147,0.0,na,0.1712,,,,,
JVASP-68862,Be2NbSn2,0.72235,0.0,na,0.8973,,,,,
JVASP-66821,LiBePt,-0.5337,0.0,0.0,0.0806,,,,,
JVASP-68793,Sc2BeBr,-0.06065,0.0,na,0.5738,,,,,
JVASP-67463,BeNbTc,0.12804,0.0,na,0.4286,,,,,
JVASP-90515,CrO3,-1.70516,1.902,2.387,0.0005,,,,,
JVASP-91730,CdCu2SnS4,-0.46746,0.019,0.597,0.0069,,,,,
JVASP-67071,NaBeGa,0.42419,0.0,na,0.4927,,,,,
JVASP-66750,TiBeTe,0.04578,0.0,0.0,0.5824,,,,,
JVASP-20063,CeMg,0.11651,0.0,0.0,0.144,,,,,
JVASP-68737,BeVSb,0.63325,0.0,0.0,0.7702,,,,,
JVASP-67712,BeTlMo,0.70868,0.0,0.0,0.8559,,,,,
JVASP-67831,SrMnBe,0.49883,0.0,na,0.6164,,,,,
JVASP-86651,Y3Ni4B4C3,-0.59639,0.0,na,0.0,,,,,
JVASP-68495,BeGaTe,0.0515,0.0,na,0.3335,,,,,
JVASP-67289,MnBe2Nb,0.01067,0.0,na,0.2447,,,,,
JVASP-75536,CrAsPd2,-0.0165,0.0,na,0.2192,,,,,
JVASP-67140,LiBeCr,0.31703,0.0,na,0.422,,,,,
JVASP-5278,KHCO3,-1.59968,5.394,7.447,0.0003,,,,,
JVASP-92181,Zn3CrSe4,-0.52024,0.0,0.0,0.1279,,,,,
JVASP-90571,Mg3Zr,0.04164,0.0,na,0.0416,,,,,
JVASP-43982,Mn3O2F4,-2.1998,0.0,na,0.0,,,,,
JVASP-68924,Be2SiPt,-0.23731,0.0,na,0.2518,,,,,
JVASP-68194,BeSi2Rh,0.02088,0.0,na,0.4028,,,,,
JVASP-68556,Be2SiMo,0.34663,0.0,na,0.6157,,,,,
JVASP-90843,KSe3,-0.4976,0.42,1.077,0.0554,,,,,
JVASP-15225,MgCuSb,-0.29237,0.0,na,0.0,,,,,
JVASP-73096,ZrBeGe,0.21086,0.0,na,0.787,,,,,
JVASP-68611,ZrBe2W,0.26823,0.0,0.0,0.5516,,,,,
JVASP-90218,MgN8,1.18776,0.568,na,1.3812,,,,,
JVASP-85696,KHCO2,-1.36976,4.305,6.038,0.0753,,,,,
JVASP-85345,EuAl4,-0.31317,0.0,na,0.0,,,,,
JVASP-73898,BeV2Sn,0.10696,0.0,na,0.2068,,,,,
JVASP-67925,SrTi2Be,0.30479,0.0,0.0,0.3912,,,,,
JVASP-67870,Ta2BeOs,-0.14265,0.0,0.0,0.1771,,,,,
JVASP-85506,Si2H2O5,-2.23539,5.696,8.503,0.0307,,,,,
JVASP-88455,Ba3SrTa2O9,-3.21758,3.838,na,0.0213,,,,,
JVASP-48018,VOF,-2.67646,0.0,na,0.045,,,,,
JVASP-90098,UFe2B6,-0.50995,0.0,na,0.0,,,,,
JVASP-48427,Li3CoOF3,-2.47595,0.304,na,0.1598,,,,,
JVASP-62683,TlBS2,-0.53131,1.698,2.639,0.0,,,,,
JVASP-75457,MnSnAs,0.20373,0.0,0.0,0.3408,,,,,
JVASP-63373,NiAs2O6,-1.13501,0.884,na,0.0,,,,,
JVASP-63518,DyAlB14,-0.16527,0.0,na,0.0681,,,,,
JVASP-68383,ScBe2Ir2,-0.69955,0.0,na,0.0192,,,,,
JVASP-73621,CaBe2Cu,0.36232,0.0,na,0.5237,,,,,
JVASP-68246,BeZn2Si,0.35807,0.0,na,0.3593,,,,,
JVASP-66828,MnBeW,0.20054,0.0,na,0.5037,,,,,
JVASP-90159,IrN2Cl6,1.26397,0.0,na,1.4951,,,,,
JVASP-68863,Be2VHg,0.42701,0.0,na,0.5787,,,,,
JVASP-43294,Li2Ti3NiO8,-2.68069,1.018,na,0.0574,,,,,
JVASP-86186,Ba5Ga5Sn,-0.55233,0.0,na,0.0,,,,,
JVASP-67555,BeBiMo2,0.2899,0.0,0.0,0.4004,,,,,
JVASP-66925,CaTiBe,0.27375,0.11,na,0.3945,,,,,
JVASP-75458,ZnAsIr2,0.30036,0.003,na,0.5654,,,,,
JVASP-67384,BeGaPt,-0.41312,0.0,na,0.1408,,,,,
JVASP-67987,TaTi2Be,0.02523,0.0,0.0,0.1257,,,,,
JVASP-63030,B4W,0.35011,0.0,na,0.6357,,,,,
JVASP-73098,ScBe2Te,0.22062,0.0,na,0.8632,,,,,
JVASP-74065,BeCo2Cl,0.18276,0.0,na,0.8258,,,,,
JVASP-67468,BeReMo,0.01141,0.0,na,0.1906,,,,,
JVASP-92234,NbVF6,-2.91018,0.0,na,0.0,,,,,
JVASP-85964,Sr2NiTeO6,-1.88455,0.986,na,0.1238,,,,,
JVASP-67226,CaBe2Ga,0.15464,0.0,na,0.4788,,,,,
JVASP-86948,RbCSO3F3,-1.65835,6.235,8.871,0.1272,,,,,
JVASP-88284,CaMgSiO4,-3.18429,4.937,na,0.0,,,,,
JVASP-86767,OsN2,0.39292,0.0,na,0.4033,,,,,
JVASP-75570,SnAsIr,-0.12188,0.0,0.0,0.2273,,,,,
JVASP-66993,HfBePd,-0.38136,0.0,0.0,0.1835,,,,,
JVASP-68195,CaBeHg2,0.13495,0.0,na,0.4037,,,,,
JVASP-67143,MgBeSe,0.02079,0.0,na,0.9271,,,,,
JVASP-91880,Mg7Mo,0.19924,0.0,na,0.1992,,,,,
JVASP-67672,ZrBeNb,0.0606,0.0,0.0,0.1863,,,,,
JVASP-91825,Mg3BO4,-2.10977,0.0,na,0.7385,,,,,
JVASP-43807,Na7NbO6,-1.88169,3.017,4.256,0.0881,,,,,
JVASP-90296,W3Se2S4,-0.9437,1.14,na,0.0,,,,,
JVASP-67591,NaMnBe,0.6324,0.0,na,0.754,,,,,
JVASP-68051,BeV2Cr,0.06211,0.0,na,0.1867,,,,,
JVASP-67713,BeCdRe2,0.47395,0.0,na,0.6108,,,,,
JVASP-85634,EuSb12Os4,-0.12127,0.0,na,0.0125,,,,,
JVASP-90033,PtN2Cl6,1.33674,0.0,na,1.4611,,,,,
JVASP-68666,Sr2BePd,0.10427,0.0,0.0,0.476,,,,,
JVASP-62858,B5Mo2,0.47845,0.0,na,0.8278,,,,,
JVASP-90749,NClO2,1.45659,0.58,na,1.5942,,,,,
JVASP-75459,Ti2AsOs,-0.24692,0.0,na,0.6035,,,,,
JVASP-67876,LaBeW2,0.48127,0.0,na,0.7963,,,,,
JVASP-75496,AsPPd2,0.16758,0.0,na,0.5439,,,,,
JVASP-73123,Be2VGa,0.15724,0.0,0.0,0.3318,,,,,
JVASP-68432,MgMnBe2,0.12001,0.0,na,0.2964,,,,,
JVASP-50895,PrTlO3,-1.50836,0.0,na,0.6473,,,,,
JVASP-67756,CaBeRu2,0.33603,0.0,na,0.4751,,,,,
JVASP-67832,BeGaRe2,-0.06228,0.0,0.0,0.0721,,,,,
JVASP-89624,SrH2O2,-1.94102,4.34,6.794,0.0,,,,,
JVASP-90422,SmBi2Au,-0.57785,0.0,na,0.0,,,,,
JVASP-42628,K6Cr2O9,-1.91178,0.0,0.0,0.0067,,,,,
JVASP-2193,Sb2Os,0.00493,0.44,0.626,0.0049,,,,,
JVASP-62575,Sr2BBrN2,-1.5793,2.598,4.154,0.0,,,,,
JVASP-68317,Be2CdRu,-0.08043,0.0,0.0,0.1919,,,,,
JVASP-67074,CaScBe,0.14531,0.0,0.0,0.2346,,,,,
JVASP-73899,Ta2BePb,0.34321,0.0,na,0.4511,,,,,
JVASP-3681,Ag2HgI4,-0.19308,1.066,2.122,0.0143,,,,,
JVASP-67469,BeFeMo,0.26928,0.0,na,0.4344,,,,,
JVASP-62691,LiB,-0.22162,0.0,na,0.0296,,,,,
JVASP-68738,Sr2BeCu,0.38938,0.0,na,0.5026,,,,,
JVASP-67229,BeSnIr,0.13739,0.0,na,0.4801,,,,,
JVASP-85834,Th2Cu,-0.12139,0.0,0.0,0.0007,,,,,
JVASP-66996,YBeSb,-0.56365,0.0,na,0.2611,,,,,
JVASP-75537,TaAsOs2,0.40236,0.0,na,0.6541,,,,,
JVASP-63031,CeSi2Au2,-0.53951,0.0,na,0.0002,,,,,
JVASP-74004,LiBeNi2,-0.07987,0.0,na,0.1683,,,,,
JVASP-74067,MgBePd2,-0.41198,0.0,na,0.2491,,,,,
JVASP-91928,SiRu,-0.51056,0.242,0.191,0.0,,,,,
JVASP-85419,LaGeAu,-0.91499,0.0,na,0.0,,,,,
JVASP-63281,Mg2GeB2Rh5,-0.61604,0.0,na,0.0145,,,,,
JVASP-91688,Pr3Al,-0.19588,0.0,na,0.0215,,,,,
JVASP-14881,LaN,-1.53197,0.0,na,0.0408,,,,,
JVASP-91642,Th3Pt5,-0.89304,0.0,na,0.3269,,,,,
JVASP-43570,Li2Fe3F8,-2.31545,0.0,0.0,0.0615,,,,,
JVASP-63374,Zr3As2,-1.05965,0.0,na,0.0,,,,,
JVASP-68385,LiMnBe,0.20668,0.0,0.0,0.3246,,,,,
JVASP-90519,Ba2SrI6,-1.86408,2.819,na,0.0,,,,,
JVASP-85758,Fe2Cu6SnS8,-0.36384,0.0,na,0.044,,,,,
JVASP-45802,Li8Cr3TeO12,-2.00372,0.011,na,0.1478,,,,,
JVASP-43437,LiFeF3,-2.42339,0.0,0.0,0.062,,,,,
JVASP-68675,MgBeIn,0.34024,0.0,na,0.4163,,,,,
JVASP-42267,Li2FeOF3,-2.45979,0.0,na,0.1523,,,,,
JVASP-67556,Be2CdBr,0.77685,0.0,na,1.1802,,,,,
JVASP-86542,Bi2PdO4,-1.05605,0.0,na,0.0944,,,,,
JVASP-1726,RbLuSe2,-1.81679,2.019,na,0.0,,,,,
JVASP-3579,PbBrF,-1.78271,2.945,4.142,0.0001,,,,,
JVASP-90675,UCo,-0.32146,0.0,na,0.0,,,,,
JVASP-91779,EuAs3,-0.67102,0.0,0.0,0.0064,,,,,
JVASP-68435,LiBe2V,0.09901,0.0,0.0,0.251,,,,,
JVASP-68318,KBeW,0.89468,0.0,na,1.132,,,,,
JVASP-68497,BeVIn,0.58483,0.0,0.0,0.6877,,,,,
JVASP-67292,HfBe2Zn,0.03597,0.0,na,0.2915,,,,,
JVASP-66751,NaBe2Pd,0.03269,0.0,0.0,0.358,,,,,
JVASP-68134,BeCrNi2,-0.0062,0.0,0.0,0.242,,,,,
JVASP-67629,BeGePb,0.47472,0.0,na,0.4747,,,,,
JVASP-75649,MgSiAs,0.19435,0.0,na,0.6031,,,,,
JVASP-67757,BeGePd2,-0.31527,0.0,na,0.172,,,,,
JVASP-85907,SrCu2O3,-1.51705,0.0,na,0.0252,,,,,
JVASP-62866,SrAl2B2O7,-3.04928,4.726,7.388,0.0315,,,,,
JVASP-86336,SiNi2,-0.47403,0.0,na,0.0,,,,,
JVASP-86710,Th2Ga,-0.37319,0.0,0.0,0.0274,,,,,
JVASP-67715,Be2IrW,-0.18605,0.0,na,0.2853,,,,,
JVASP-73903,BePRu2,-0.28476,0.0,na,0.0991,,,,,
JVASP-67793,BeSi2Br,0.92268,0.0,0.0,1.3259,,,,,
JVASP-68926,BeSiRh,-0.48068,0.0,0.0,0.027,,,,,
JVASP-68795,Be2MoPb2,1.18754,0.0,0.0,1.3643,,,,,
JVASP-62692,BPt2,-0.14746,0.0,na,0.0015,,,,,
JVASP-68247,NaSc2Be,0.28534,0.0,na,0.3512,,,,,
JVASP-66930,MnBePb,0.9522,0.0,0.0,1.0698,,,,,
JVASP-90891,DyFeGe2,-0.48378,0.0,na,0.0638,,,,,
JVASP-48713,VOF3,-2.65467,1.993,1.935,0.0858,,,,,
JVASP-87990,Ca2Si5N8,-1.33825,3.396,na,0.0,,,,,
JVASP-91592,TiSe,-0.98936,0.0,na,0.1664,,,,,
JVASP-15351,TbNiGe2,-0.70726,0.0,na,0.0,,,,,
JVASP-68740,BeZnW,0.17285,0.0,na,0.4073,,,,,
JVASP-19859,Cu3Sn,0.08949,0.0,na,0.1006,,,,,
JVASP-18404,YH3,-0.48517,0.0,na,0.2059,,,,,
JVASP-42670,HfNbO4,-3.11646,0.0,na,0.0991,,,,,
JVASP-73628,YBe2V,0.30341,0.0,na,0.4551,,,,,
JVASP-67390,LiYBe,0.20343,0.0,0.0,0.2037,,,,,
JVASP-15646,ErZrSb,-0.77885,0.0,0.0,0.0,,,,,
JVASP-67927,Sc2BeOs,-0.14817,0.0,0.0,0.2328,,,,,
JVASP-90102,CrPPd,-0.12464,0.0,na,0.3067,,,,,
JVASP-48903,Li5MnCr3O8,-1.98858,0.0,0.0,0.158,,,,,
JVASP-75460,ScAsW,0.684,0.0,na,1.8337,,,,,
JVASP-66836,BePdCl,-0.15432,0.0,0.0,0.838,,,,,
JVASP-49847,Zn3N2,0.02741,0.001,na,0.0336,,,,,
JVASP-88985,Ba2CdSe3,-1.65983,1.648,na,0.0011,,,,,
JVASP-74008,KBeSi2,0.42014,0.0,0.0,0.4247,,,,,