jid,formula,formation_energy_per_atom,optb88vdw_bandgap,mbj_bandgap,ehull,spacegroup_number,natoms,volume,bulk_modulus_kv,shear_modulus_gv
JVASP-99694,K2NaIrF6,-2.45478,2.365,2.454,0.0014,,,,,
JVASP-100561,FeCo2Se4,-0.26654,0.0,0.0,0.0601,,,,,
JVASP-102224,CdPb3Se4,-0.56654,0.629,na,0.0298,,,,,
JVASP-100253,UHgO3,-2.37956,0.024,0.0,0.2006,,,,,
JVASP-100504,Sr2LiGa,-0.23441,0.0,na,0.0,,,,,
JVASP-101760,Sr2PtN2,-0.7977,0.0,na,0.0,,,,,
JVASP-17906,ZnCu2GeSe4,-0.35546,0.0,0.42,0.0119,,,,,
JVASP-102115,YbLiTl2,-0.3941,0.0,na,0.0018,,,,,
JVASP-15572,LiGa2Ir,-0.49319,0.0,na,0.0,,,,,
JVASP-100842,Er3S3OF,-2.94333,0.508,na,0.0459,,,,,
JVASP-103137,NaMgN,-0.39133,0.0,na,0.1771,,,,,
JVASP-102982,Sm2GaAg,-0.45312,0.0,na,0.0162,,,,,
JVASP-101550,CeH3,-0.54893,0.0,na,0.0,,,,,
JVASP-101611,TaZn3,-0.07273,0.0,0.0,0.0,,,,,
JVASP-47545,NbCo3O8,-1.49599,0.0,0.0,0.0698,,,,,
JVASP-101833,H2CO,-0.42448,5.096,na,0.3231,,,,,
JVASP-15324,ThGe2Pd2,-0.78296,0.0,na,0.0,,,,,
JVASP-100202,MgVRu2,-0.19255,0.0,0.0,0.0,,,,,
JVASP-101422,Pr2CdRh2,-0.61865,0.0,na,0.0,,,,,
JVASP-15662,CeB2Ru3,-0.48045,0.0,na,0.0,,,,,
JVASP-101979,H16PbC10O4,-0.38694,3.86,na,0.0688,,,,,
JVASP-101171,LiZr2S4,-1.72891,0.0,na,0.0,,,,,
JVASP-103234,CaCeCd2,-0.30821,0.0,na,0.0148,,,,,
JVASP-100885,TbK3Cl6,-2.15119,4.52,na,0.0523,,,,,
JVASP-15025,NbN,-1.19239,0.0,0.0,0.04,,,,,
JVASP-100798,Tb2AlCu,-0.35401,0.0,0.0,0.0199,,,,,
JVASP-99470,Hf2CuRh,-0.49697,0.0,na,0.0148,,,,,
JVASP-103060,NiIr,0.019,0.0,na,0.019,,,,,
JVASP-101791,H10C18S3,0.09985,0.773,na,0.1882,,,,,
JVASP-101709,KNaMg2F6,-3.48369,6.544,10.415,0.013,,,,,
JVASP-103322,Ti3Te,-0.24795,0.0,0.0,0.1315,,,,,
JVASP-100301,Rb2PuO4,-2.60994,0.0,na,0.0,,,,,
JVASP-101659,SmBiPd,-0.9622,0.0,0.142,0.0,,,,,
JVASP-18475,Pb2ClO2,-1.14685,0.0,0.0,0.0269,,,,,
JVASP-101227,BiSbPt2,-0.31763,0.0,0.0,0.0028,,,,,
JVASP-15362,SmCo2Ge2,-0.61025,0.0,na,0.0,,,,,
JVASP-101476,MnNi3O4,-0.84957,0.0,na,0.2844,,,,,
JVASP-100388,InGaAg2Se4,-0.40141,0.041,na,0.0007,,,,,
JVASP-52841,NaH3SO5,-1.38823,5.801,8.593,0.0,,,,,
JVASP-100119,Rb3GaF6,-2.94305,6.167,8.767,0.0,,,,,
JVASP-99371,Er2TlIn,-0.37972,0.0,0.0,0.0129,,,,,
JVASP-103608,K3Ca,0.11757,0.0,na,0.1282,,,,,
JVASP-102292,SrErO3,-2.93336,0.0,na,0.2638,,,,,
JVASP-100042,AlInAg2Se4,-0.51398,0.499,na,0.0015,,,,,
JVASP-100348,Sn2Pd3Pt3,-0.42857,0.0,na,0.0,,,,,
JVASP-99936,ScTlF6,-2.96304,3.78,5.821,0.0271,,,,,
JVASP-103711,In2CuAgSe4,-0.41351,0.042,0.277,0.0,,,,,
JVASP-100159,CoNi3,0.01448,0.0,na,0.0254,,,,,
JVASP-100701,LiVO3,-2.40795,1.607,2.102,0.078,,,,,
JVASP-100755,SbPb3,0.04437,0.0,na,0.0444,,,,,
JVASP-2679,CaPdF6,-2.42385,2.17,na,0.0,,,,,
JVASP-100952,BaNaTl2,-0.33139,0.0,na,0.0069,,,,,
JVASP-100663,CeZrO4,-3.63177,1.956,na,0.0628,,,,,
JVASP-101063,PrAsPd,-1.19489,0.0,0.0,0.0,,,,,
JVASP-99647,Y6FeBi2,-0.48363,0.0,na,0.0,,,,,
JVASP-15240,LaSi2Ir2,-1.00796,0.0,na,0.0265,,,,,
JVASP-99695,K2LuAgCl6,-1.85799,3.552,na,0.0,,,,,
JVASP-47639,Hf3SnO8,-3.27261,3.721,5.544,0.0338,,,,,
JVASP-100442,ZnMoN2,-0.43233,0.029,na,0.0,,,,,
JVASP-101508,Na3GaBr6,-1.15659,1.388,na,0.184,,,,,
JVASP-19865,ErNi5,-0.3754,0.0,0.0,0.0,,,,,
JVASP-101612,Tb3Ag,-0.02138,0.0,na,0.1579,,,,,
JVASP-101006,NbIr3,-0.63123,0.0,na,0.0,,,,,
JVASP-103657,CeAl2Si2,-0.4038,0.0,0.0,0.0,,,,,
JVASP-100564,BaSrZnWO6,-2.70602,2.964,na,0.0,,,,,
JVASP-102909,AgBrO3,0.10949,2.223,2.797,0.2622,,,,,
JVASP-102347,Bi3Te5Pb,-0.21312,0.0,0.0,0.063,,,,,
JVASP-52278,YUO4,-3.7382,0.0,na,0.0026,,,,,
JVASP-100619,YbPmCd2,-0.4313,0.0,0.0,0.0,,,,,
JVASP-102226,CaB2C6,-0.21064,0.623,na,0.0384,,,,,
JVASP-102984,Sr3La,0.13355,0.0,na,0.1357,,,,,
JVASP-100203,Mg3Tl,-0.03494,0.0,na,0.0215,,,,,
JVASP-103420,SnSbO4,-1.54633,0.0,0.0,0.1021,,,,,
JVASP-1474,LiCrS2,-1.10093,0.711,na,0.0,,,,,
JVASP-103237,Ce2AgSn,-0.3596,0.0,na,0.0882,,,,,
JVASP-18595,TmAg2,-0.37496,0.0,0.0,0.0,,,,,
JVASP-100255,USb3,-0.11126,0.0,na,0.0922,,,,,
JVASP-101835,H3CNO2,-0.12845,4.392,na,0.6613,,,,,
JVASP-101792,H6C10S,0.0937,1.502,na,0.1894,,,,,
JVASP-106229,MgReO4,-2.11031,0.0,1.149,0.0556,,,,,
JVASP-100505,Sr3Sc,0.2737,0.0,0.0,0.2737,,,,,
JVASP-15793,SrSi2Au2,-0.49473,0.0,na,0.0054,,,,,
JVASP-100799,SrTiMnBiO6,-2.41869,0.0,na,0.0949,,,,,
JVASP-103138,CaReN2,-0.60362,0.0,0.0,0.0578,,,,,
JVASP-102116,Mg5Sc,0.01175,0.0,na,0.036,,,,,
JVASP-2763,BaMg2As2,-1.03967,1.152,1.604,0.0,,,,,
JVASP-100953,BaSr2Ca,-0.01644,0.0,na,0.0132,,,,,
JVASP-100349,SmTh,0.03157,0.0,na,0.0316,,,,,
JVASP-19818,TbAl2,-0.54109,0.0,0.0,0.0,,,,,
JVASP-100160,Ce2CdPb,-0.24088,0.0,na,0.0569,,,,,
JVASP-14654,SrIr2,-0.40071,0.0,na,0.0,,,,,
JVASP-2682,K2PtS2,-1.07093,1.324,1.759,0.0,,,,,
JVASP-100886,Rb2YCuF6,-3.11104,0.936,na,0.0657,,,,,
JVASP-99937,Sm3Pu,0.45383,0.0,na,0.5757,,,,,
JVASP-101894,CaH4C4O4,-1.09979,4.684,na,0.0982,,,,,
JVASP-101938,HfH2C3O4,-1.18536,2.41,na,0.4548,,,,,
JVASP-102293,TiMo2W,-0.15324,0.0,na,0.0842,,,,,
JVASP-100702,Dy2SbO2,-2.90336,0.0,na,0.0,,,,,
JVASP-102173,TiAlCu2,-0.19457,0.0,na,0.117,,,,,
JVASP-99696,K2AlAuBr6,-1.11702,0.0,na,0.1867,,,,,
JVASP-14895,GeP,0.04277,0.0,na,0.0504,,,,,
JVASP-101115,Sr5ZnCd4,-0.40718,0.0,na,0.0,,,,,
JVASP-20108,TbTe,-1.34363,0.0,0.876,0.0,,,,,
JVASP-16062,NdRhC2,-0.35424,0.0,na,0.0152,,,,,
JVASP-101424,Na2CeF6,-3.50059,2.474,na,0.0,,,,,
JVASP-100506,TbCdPt2,-0.87835,0.0,na,0.0,,,,,
JVASP-101172,LaYMg6,-0.13983,0.0,na,0.0,,,,,
JVASP-101007,Nd2TlAg,-0.36549,0.0,na,0.0,,,,,
JVASP-102910,NClO3,0.02371,2.225,na,0.1362,,,,,
JVASP-14984,FeSb,0.03621,0.0,0.0,0.05,,,,,
JVASP-101064,MnSiP2,-0.07868,0.0,na,0.2779,,,,,
JVASP-103791,H4C3SO,-0.17613,2.52,na,0.2172,,,,,
JVASP-100800,TaTiC2,-0.83342,0.0,na,0.0,,,,,
JVASP-102368,Na3YCl6,-1.96836,3.827,na,0.1483,,,,,
JVASP-100302,TbAl3Cu2,-0.45259,0.0,0.0,0.0,,,,,
JVASP-103854,H3C5SNO2,-0.20382,2.593,na,0.2594,,,,,
JVASP-15618,MnSbPt,-0.25748,0.0,0.0,0.0391,,,,,
JVASP-48360,Li2FeCo3O8,-1.48706,0.0,na,0.082,,,,,
JVASP-15712,BaSb2Pd2,-0.779,0.0,na,0.0,,,,,
JVASP-100620,YbBiRh2,-0.52092,0.0,na,0.0267,,,,,
JVASP-99605,TbAl3,-0.44899,0.0,0.0,0.0146,,,,,
JVASP-99562,LiCoN,-0.19857,0.0,0.0,0.1416,,,,,
JVASP-102054,Rb3GaBr6,-1.3774,2.277,3.724,0.0596,,,,,
JVASP-100389,K4NaCl5,-2.04207,5.186,na,0.0222,,,,,
JVASP-101510,Rb2GaAuBr6,-1.06372,0.0,na,0.0358,,,,,
JVASP-100044,AgSbS2,-0.15706,0.0,na,0.0987,,,,,
JVASP-101710,La2CoSb4,-0.80048,0.0,na,0.0234,,,,,
JVASP-1642,LiCuO2,-1.26094,0.369,na,0.0,,,,,
JVASP-101660,TbMnGa,-0.19218,0.0,na,0.2315,,,,,
JVASP-100443,Si2SeN2,-0.85691,3.004,na,0.0891,,,,,
JVASP-102227,CaHo2Te4,-1.51857,0.605,1.157,0.0174,,,,,
JVASP-100664,CeMnSi2Pd,-0.6287,0.0,na,0.0466,,,,,
JVASP-100756,SrCd3,-0.29502,0.0,0.0,0.031,,,,,
JVASP-2436,NaSbS2,-0.78716,0.756,1.634,0.0023,,,,,
JVASP-1777,ScTlSe2,-1.32482,0.617,na,0.0,,,,,
JVASP-100205,Mg5Pd,-0.24252,0.0,na,0.0476,,,,,
JVASP-102118,Nd2CdAg,-0.31382,0.0,na,0.013,,,,,
JVASP-100565,BaLaFe2O6,-2.40515,0.0,na,0.015,,,,,
JVASP-103239,CeNd3,0.08349,0.0,na,0.0835,,,,,
JVASP-100703,InO2,-1.12203,0.15,na,0.299,,,,,
JVASP-103914,ZnH8C6O4,-0.55167,3.894,na,0.1162,,,,,
JVASP-103139,CaOsN2,-0.37182,0.0,na,0.1646,,,,,
JVASP-48303,Li3TiNi3O8,-1.7926,0.0,na,0.0592,,,,,
JVASP-100954,Ba3Er,0.17547,0.0,na,0.1764,,,,,
JVASP-104139,H6C9SO,-0.00843,1.46,na,0.2319,,,,,
JVASP-1167,BeS,-1.24098,3.395,4.376,0.0359,,,,,
JVASP-15106,TmFe2Si2,-0.66636,0.0,na,0.0,,,,,
JVASP-18629,BaTl2,-0.42898,0.0,na,0.0,,,,,
JVASP-19834,Nb3Al,-0.16807,0.0,na,0.0416,,,,,
JVASP-100757,SrBr2,-2.19985,4.581,na,0.0446,,,,,
JVASP-43129,Li2MnCr2O6,-2.08453,0.381,na,0.0839,,,,,
JVASP-100801,TaB4W3,-0.41837,0.0,na,0.2002,,,,,
JVASP-103712,In3Co,0.04363,0.0,na,0.0559,,,,,
JVASP-103658,SmHg2,-0.28903,0.0,na,0.0,,,,,
JVASP-103323,YbCuO3,-1.70736,0.0,na,0.0333,,,,,
JVASP-102174,Ti3S2,-1.01075,0.0,0.0,0.2511,,,,,
JVASP-100350,SmCo2Ni3,-0.18786,0.0,0.0,0.0688,,,,,
JVASP-101551,DyCdPt2,-0.90148,0.0,0.0,0.0053,,,,,
JVASP-103424,SmAlCu4,-0.25416,0.0,na,0.0147,,,,,
JVASP-103973,CdH10C7O4,-0.47193,3.985,na,0.0965,,,,,
JVASP-102056,ZrSbRh,-0.98295,1.168,1.148,0.0,,,,,
JVASP-15573,PrMn2Si2,-0.4908,0.0,0.0,0.0,,,,,
JVASP-2439,Nd2TeO2,-3.06453,1.716,2.44,0.0,,,,,
JVASP-101661,RbSrCl3,-2.40387,4.816,na,0.0087,,,,,
JVASP-100303,Sm2MgSi2,-0.69104,0.0,na,0.0,,,,,
JVASP-106231,Ca,0.00044,0.0,0.0,0.0,,,,,
JVASP-99938,Rb2WO2F4,-2.75197,2.238,3.838,0.0,,,,,
JVASP-101793,H2C3,0.02904,1.985,na,0.1361,,,,,
JVASP-100509,Ti2MoPd,-0.40201,0.0,0.0,0.0,,,,,
JVASP-101613,Tb3In,-0.27078,0.0,na,0.0008,,,,,
JVASP-100391,HfTiSe4,-1.25736,0.0,na,0.0268,,,,,
JVASP-101065,UCuSi,-0.1578,0.0,na,0.0832,,,,,
JVASP-101511,Rb2InAgBr6,-1.18603,0.041,na,0.0,,,,,
JVASP-104096,HC2F3,-1.04299,4.724,na,0.2201,,,,,
JVASP-102369,K3BiI6,-1.00869,2.566,3.244,0.13,,,,,
JVASP-102914,AcDy3,0.05724,0.0,na,0.0638,,,,,
JVASP-101173,LaYMn2Si2,-0.49953,0.0,na,0.0456,,,,,
JVASP-100568,RbPbF3,-2.65143,3.999,5.501,0.0025,,,,,
JVASP-101228,BiPd6Pb,-0.25077,0.0,0.0,0.0083,,,,,
JVASP-102119,Nd2HgPb,-0.47922,0.0,na,0.0,,,,,
JVASP-102349,Al3BC,-0.21259,0.645,0.903,0.0,,,,,
JVASP-101895,CaH10C7O4,-0.70074,4.725,na,0.0793,,,,,
JVASP-101836,H8C15S2O,0.01488,1.084,na,0.1936,,,,,
JVASP-101116,Sr2TaMnO6,-2.95648,0.0,0.0,0.0133,,,,,
JVASP-103247,DyScZn2,-0.38301,0.0,na,0.0134,,,,,
JVASP-14343,CNCl,0.3675,5.7,na,0.3737,,,,,
JVASP-100887,Rb2CuPdF6,-2.15931,0.0,na,0.0,,,,,
JVASP-15026,USb2,-0.27131,0.0,0.0,0.0,,,,,
JVASP-99648,HoBiRh,-0.75026,0.0,0.0,0.0,,,,,
JVASP-99563,NdMnAsO,-1.83131,0.0,na,0.0001,,,,,
JVASP-101761,Fe4Se3N2,-0.10621,0.0,na,0.2201,,,,,
JVASP-100208,MgSc,-0.03249,0.0,0.0,0.0007,,,,,
JVASP-102985,SrMgO3,-2.19919,0.0,0.0,0.3088,,,,,
JVASP-56996,TaFe2,-0.23964,0.0,na,0.0,,,,,
JVASP-101425,TbBiRh,-0.75974,0.0,0.0,0.0,,,,,
JVASP-100444,ScAlN2,-1.67546,1.021,1.741,0.2266,,,,,
JVASP-100621,Rb3EuF6,-3.35086,4.872,9.176,0.117,,,,,
JVASP-102538,NdTmIn2,-0.47482,0.0,0.0,0.0107,,,,,
JVASP-100843,La2In3Sn3,-0.59156,0.0,na,0.0,,,,,
JVASP-103609,In3S,-0.12868,0.0,0.0,0.166,,,,,
JVASP-100802,Ta2FeS4,-0.94583,0.174,na,0.0917,,,,,
JVASP-14896,GeAs,0.05868,0.0,na,0.1089,,,,,
JVASP-100665,BaGa2GeS6,-1.02713,2.577,na,0.0,,,,,
JVASP-15405,TaSnS2,-0.94428,0.0,na,0.0,,,,,
JVASP-99606,SnGeO3,-1.39053,0.0,0.191,0.2521,,,,,
JVASP-100046,CdGeN2,-0.0335,0.87,na,0.0242,,,,,
JVASP-101554,Ce2Mg,-0.02293,0.0,na,0.0,,,,,
JVASP-16063,BaPaO3,-3.40962,0.0,4.539,0.028,,,,,
JVASP-20109,DyNi5,-0.37051,0.0,0.0,0.0,,,,,
JVASP-102434,MnGaO3,-1.80749,0.0,na,0.077,,,,,
JVASP-18848,DySnAu,-0.83174,0.0,na,0.0,,,,,
JVASP-15241,ScSi2Ni2,-0.75269,0.0,0.0,0.0,,,,,
JVASP-18476,BiO,-0.62732,0.0,0.977,0.5092,,,,,
JVASP-103062,NbAl6Mo,-0.34282,0.0,0.0,0.0271,,,,,
JVASP-15663,MnSbAu,0.15184,0.0,0.0,0.1943,,,,,
JVASP-102058,Na2TlHgF6,-1.88484,0.0,na,0.2676,,,,,
JVASP-15091,NdSi2Cu2,-0.55684,0.0,na,0.0,,,,,
JVASP-18426,AlCl3,-0.7388,0.0,0.0,0.8621,,,,,
JVASP-103324,Tm2AlRu,-0.43825,0.0,0.0,0.0,,,,,
JVASP-103713,In2CuTe3Cl,-0.36967,0.649,na,0.0617,,,,,
JVASP-101712,HoAgTe2,-0.88799,1.08,1.633,0.0305,,,,,
JVASP-2685,Rb2PtS2,-1.05431,1.276,1.702,0.0,,,,,
JVASP-102296,YHoIr2,-0.97294,0.0,0.0,0.0,,,,,
JVASP-100758,TaP,-0.91742,0.0,0.0,0.0049,,,,,
JVASP-101011,Pm2TlSn,-0.53226,0.0,0.0,0.0,,,,,
JVASP-101980,H8PbC6O4,-0.54878,2.803,na,0.0833,,,,,
JVASP-100351,SmBeCu4,-0.15474,0.0,na,0.0574,,,,,
JVASP-50724,LiFe2P2,-0.62887,0.0,na,0.0254,,,,,
JVASP-102488,ErLuRh2,-1.03513,0.0,0.0,0.0,,,,,
JVASP-14655,Sm2Tl,-0.27643,0.0,0.0,0.0104,,,,,
JVASP-101512,Rb2TmAuCl6,-1.77602,1.91,na,0.0515,,,,,
JVASP-100392,HfTiMo4,-0.07187,0.0,na,0.0749,,,,,
JVASP-102370,K2RbScBr6,-1.7684,3.237,na,0.0382,,,,,
JVASP-1645,MgCN2,-0.76493,3.95,5.195,0.0,,,,,
JVASP-101229,BaSrMgTeO6,-2.51315,2.005,na,0.0,,,,,
JVASP-100844,Co3ReB4,-0.25266,0.0,na,0.0496,,,,,
JVASP-106233,CaYZn2,-0.37667,0.0,na,0.0,,,,,
JVASP-100704,AcCdAu2,-0.69502,0.0,0.0,0.0,,,,,
JVASP-43602,LiFeF4,-2.49744,1.143,na,0.0773,,,,,
JVASP-101794,H12C18O,0.0135,2.626,na,0.1965,,,,,
JVASP-15209,TbSi2Cu2,-0.55761,0.0,na,0.0,,,,,
JVASP-103250,ErTmAg2,-0.37995,0.0,na,0.0,,,,,
JVASP-102175,Ti3Te2Se2,-0.98562,0.0,na,0.0031,,,,,
JVASP-15461,HoGa5Co,-0.45151,0.0,na,0.0,,,,,
JVASP-101614,Tb3Sm,0.00635,0.0,na,0.0113,,,,,
JVASP-15759,TbAl2Ge2,-0.4714,0.0,na,0.0,,,,,
JVASP-101897,AlH16C10ClO4,-0.49476,3.343,na,0.1331,,,,,
JVASP-100510,Ti3Cd,0.03389,0.0,0.0,0.0894,,,,,
JVASP-101117,SnPb4Se5,-0.58591,0.256,na,0.0,,,,,
JVASP-54715,H7BrO3,-0.89101,4.392,6.586,0.0,,,,,
JVASP-103426,ScTaN,-1.15643,0.0,na,0.28,,,,,
JVASP-100304,ScTaN2,-1.84346,0.0,0.0,0.0,,,,,
JVASP-100445,Sr2PdN2,-0.60595,0.0,0.0,0.0917,,,,,
JVASP-103659,SrLiSi,-0.36536,0.0,0.0,0.0037,,,,,
JVASP-103140,Li2IrN2,-0.18374,0.0,na,0.2199,,,,,
JVASP-102918,BaNa2Sn,-0.36615,0.0,0.0,0.0261,,,,,
JVASP-100571,KNa2ScF6,-3.23565,5.296,8.266,0.2392,,,,,
JVASP-100888,K3CeBr6,-1.79336,0.0,na,0.1002,,,,,
JVASP-102987,TbYbPd2,-0.96054,0.0,na,0.0032,,,,,
JVASP-101426,ScO2,-2.82363,0.35,3.842,0.3573,,,,,
JVASP-52903,BeH2O2,-1.81655,5.828,8.274,0.0,,,,,
JVASP-102120,Pa3Re,0.17125,0.0,na,0.2394,,,,,
JVASP-100666,AlCrGe,-0.0328,0.0,0.0,0.0521,,,,,
JVASP-100210,MgSc2Hg,-0.18636,0.0,0.0,0.0015,,,,,
JVASP-18849,CeAgSn,-0.50077,0.0,na,0.0,,,,,
JVASP-101230,Bi4Te3S3,-0.34875,0.335,na,0.0029,,,,,
JVASP-15619,TbMn2Si2,-0.56066,0.0,na,0.0,,,,,
JVASP-100622,TiMnAs,-0.60512,0.0,na,0.0199,,,,,
JVASP-104140,H3C4O,-0.1945,3.083,na,0.2133,,,,,
JVASP-101066,Sn2IF2,-1.5109,0.0,0.0,0.1042,,,,,
JVASP-101175,LaNdCuO4,-2.85828,0.0,na,0.0,,,,,
JVASP-102350,Sc2CrN3,-1.42827,0.0,na,0.238,,,,,
JVASP-100958,CaAcTl2,-0.46675,0.0,0.0,0.0,,,,,
JVASP-102642,ZrNbCN,-1.18167,0.0,na,0.0592,,,,,
JVASP-14720,CaAu2,-0.79477,0.0,na,0.0,,,,,
JVASP-100705,Ac3Ce,0.12786,0.0,na,0.1364,,,,,
JVASP-102435,LiHoO2,-3.12446,4.464,6.033,0.0711,,,,,
JVASP-101762,La2ZnFeO6,-2.67125,0.0,na,0.0,,,,,
JVASP-1477,RbCeTe2,-1.4085,0.002,na,0.0,,,,,
JVASP-101662,PrSiOs2C,-0.47944,0.0,na,0.0,,,,,
JVASP-100845,CeCoSi3,-0.42629,0.0,na,0.2063,,,,,
JVASP-103610,KMnO3,-1.57525,0.0,na,0.2772,,,,,
JVASP-102059,K2LiCeBr6,-1.7913,0.241,na,0.0681,,,,,
JVASP-100352,SmDyNi2,-0.48646,0.0,na,0.0028,,,,,
JVASP-3978,P2Pd,-0.42707,0.553,0.5,0.0,,,,,
JVASP-15713,ScSi2Cu2,-0.4507,0.0,0.0,0.0,,,,,
JVASP-51112,Ga2WSe,0.63294,0.0,na,1.0633,,,,,
JVASP-99607,Sr2CdGa,-0.42896,0.0,0.0,0.0,,,,,
JVASP-101012,PmDyZn2,-0.3768,0.0,na,0.0,,,,,
JVASP-15683,Ba2CuHgO4,-1.75851,0.0,na,0.0,,,,,
JVASP-21539,SrZnF4,-3.29253,5.311,na,0.0083,,,,,
JVASP-100759,TaTc2Ge,-0.26078,0.0,0.0,0.0404,,,,,
JVASP-102230,AlNi6Pd,-0.19097,0.0,0.0,0.0745,,,,,
JVASP-102297,YTmCd2,-0.37153,0.0,na,0.0,,,,,
JVASP-100393,HfSc,0.00559,0.0,na,0.0232,,,,,
JVASP-102689,PtSeS,-0.39969,0.0,0.248,0.0064,,,,,
JVASP-100446,Cu3As,0.16293,0.0,na,0.1629,,,,,
JVASP-103660,RbPbCl3,-1.52125,2.106,na,0.061,,,,,
JVASP-103714,HfUTa2C4,-0.70686,0.0,na,0.0423,,,,,
JVASP-28416,Te2W,-0.03597,0.95,1.076,0.1496,,,,,
JVASP-19912,MoPt2,-0.37256,0.0,0.0,0.0,,,,,
JVASP-103251,ErMg2,-0.04548,0.0,na,0.0199,,,,,
JVASP-16209,Hf2Ge,-0.62755,0.0,na,0.0,,,,,
JVASP-100889,K3BiCl6,-1.59355,4.006,na,0.0533,,,,,
JVASP-102589,ZnCo3,0.04282,0.0,na,0.0746,,,,,
JVASP-16064,BaNpO3,-3.2796,0.0,0.0,0.0,,,,,
JVASP-16128,SmNi2B2C,-0.52779,0.0,0.0,0.0,,,,,
JVASP-100305,Sb2AsS2,-0.22717,0.369,na,0.0044,,,,,
JVASP-102176,Th2Si3Os,-0.68095,0.0,na,0.0,,,,,
JVASP-101513,Rb2HgAuF6,-1.88375,0.0,na,0.0681,,,,,
JVASP-103855,H5C7NO2,-0.21141,2.568,na,0.2224,,,,,
JVASP-102121,PmPrIn2,-0.51103,0.0,na,0.0117,,,,,
JVASP-102540,PaTc2Sn,-0.2337,0.0,0.0,0.0,,,,,
JVASP-51153,SiTe2Os,0.85519,0.0,0.0,1.0183,,,,,
JVASP-100511,TiZn2Pd,-0.36645,0.0,0.0,0.0207,,,,,
JVASP-103325,TmMgPd2,-0.87201,0.0,na,0.0002,,,,,
JVASP-101939,HfH6C5O4,-0.78656,2.287,na,0.3351,,,,,
JVASP-100623,Ba2LuMoO6,-3.11773,0.0,na,0.0,,,,,
JVASP-49804,Tb3NbO7,-3.54602,2.624,na,0.0031,,,,,
JVASP-14897,AgF,-1.04198,0.0,2.089,0.0,,,,,
JVASP-100706,AcCeMg2,0.03656,0.0,na,0.0998,,,,,
JVASP-101615,Tb5Mg,0.01226,0.0,na,0.037,,,,,
JVASP-15284,ErSi2Ir2,-1.02049,0.0,0.0,0.0,,,,,
JVASP-28454,Te2W,-0.03391,0.985,1.077,0.1517,,,,,
JVASP-15463,SrCu2As2,-0.53935,0.0,na,0.0,,,,,
JVASP-103063,Nd2MnFe3Ge4,-0.46316,0.0,na,0.015,,,,,
JVASP-101231,BaNaTiNbO6,-2.9733,1.597,na,0.0257,,,,,
JVASP-101663,Ba4Pd,-0.09552,0.0,na,0.1862,,,,,
JVASP-100760,Ti3Zn,-0.11447,0.0,na,0.0048,,,,,
JVASP-100572,Rb2IrAuF6,-1.85307,0.657,1.578,0.2563,,,,,
JVASP-103792,H7C6SN,0.02685,2.791,na,0.1768,,,,,
JVASP-102371,K2LiRhF6,-2.62176,1.9,2.425,0.0,,,,,
JVASP-101176,LaCuGe,-0.6809,0.0,na,0.0,,,,,
JVASP-15027,ErIr,-1.00712,0.0,na,0.0,,,,,
JVASP-1504,NaTaN2,-1.08377,1.33,2.236,0.0,,,,,
JVASP-103427,ScNbPb2O6,-2.44538,2.706,na,0.0004,,,,,
JVASP-101763,Ba2CoWO6,-2.5432,0.0,na,0.0,,,,,
JVASP-100846,CeAl2Cu3,-0.37665,0.0,na,0.0,,,,,
JVASP-14950,YbPd,-0.96957,0.0,na,0.0,,,,,
JVASP-101427,YbU2S3O2,-2.48027,0.0,na,0.1048,,,,,
JVASP-102988,TbSm3,0.02403,0.0,na,0.0281,,,,,
JVASP-102742,Hg2TeS,0.05877,0.0,0.0,0.0668,,,,,
JVASP-100667,AgBiPbS3,-0.39429,0.105,0.637,0.0331,,,,,
JVASP-102351,Ba2UCoO6,-2.87813,0.0,na,0.0,,,,,
JVASP-104097,H2C4S,0.11225,0.571,na,0.1917,,,,,
JVASP-101714,Ho2InAg,-0.43094,0.0,0.0,0.0,,,,,
JVASP-140,PdSe2,-0.25848,0.0,na,0.0452,,,,,
JVASP-15048,YIr2,-0.88187,0.0,na,0.0,,,,,
JVASP-102494,In,-0.00249,0.0,na,0.0,,,,,
JVASP-103662,ZrMo2,0.04083,0.0,na,0.1798,,,,,
JVASP-103611,La3Zr,0.07472,0.0,na,0.0747,,,,,
JVASP-15138,DyB2Ru3,-0.45742,0.0,na,0.0,,,,,
JVASP-99649,LaCo5H4,-0.10441,0.0,na,0.1602,,,,,
JVASP-100394,HfAlW4,-0.25678,0.0,na,0.2476,,,,,
JVASP-102438,ScF3,-4.00066,5.986,7.064,0.1139,,,,,
JVASP-103252,Eu3Mg,0.01161,0.0,na,0.0667,,,,,
JVASP-101118,SnBi,0.03639,0.0,0.0,0.0364,,,,,
JVASP-100447,SnPbN2,0.39079,0.039,na,0.3985,,,,,
JVASP-102060,K3ScCl6,-2.10227,3.999,4.217,0.0309,,,,,
JVASP-102233,ZnCu2SiSe4,-0.3981,0.663,2.051,0.0068,,,,,
JVASP-100959,Ca2AgRh,-0.44282,0.0,0.0,0.0,,,,,
JVASP-101898,AlH18C10ClO5,-0.54077,4.71,na,0.1187,,,,,
JVASP-101981,H8PbC6O4,-0.54879,2.804,na,0.0833,,,,,
JVASP-102123,Pu2SnHg,-0.38232,0.0,0.0,0.0,,,,,
JVASP-102690,PuIn,-0.26191,0.0,na,0.1334,,,,,
JVASP-103918,ZnH8C6O4,-0.49429,3.1,na,0.1736,,,,,
JVASP-14225,Ag8S,0.15629,0.0,0.0,0.1815,,,,,
JVASP-100890,Na2GaCuF6,-2.41658,0.0,na,0.0961,,,,,
JVASP-100626,TmMgAg,-0.2878,0.0,na,0.0,,,,,
JVASP-101555,Cu3As,0.06381,0.0,0.0,0.0638,,,,,
JVASP-15325,HoSi2Pd2,-0.87148,0.0,0.0,0.0,,,,,
JVASP-102919,BeCrFe2,-0.15458,0.0,0.0,0.0,,,,,
JVASP-14601,Sn,-0.0,0.0,0.0,0.0,,,,,
JVASP-52842,Al6C3N2,-0.27412,0.221,0.368,0.4809,,,,,
JVASP-102590,Yb3Ho,0.10388,0.0,na,0.1039,,,,,
JVASP-103975,CdH12C8O4,-0.43139,3.875,na,0.09,,,,,
JVASP-3000,BaMg2Sb2,-0.85211,0.912,1.275,0.0,,,,,
JVASP-101232,BaGa2SiSe6,-0.92673,2.082,na,0.0,,,,,
JVASP-101616,TiTc2Sn,-0.20396,0.0,na,0.0466,,,,,
JVASP-12177,Sb,0.30369,0.0,0.0,0.0,,,,,
JVASP-102352,MnNiO2,-1.05634,0.0,na,0.309,,,,,
JVASP-101177,La2MgAl,-0.30551,0.0,na,0.0153,,,,,
JVASP-101664,Ba2CaBiO6,-2.27427,0.0,na,0.0308,,,,,
JVASP-99650,Pr4CoI5,-1.11932,0.0,na,0.0,,,,,
JVASP-102541,PaMn2Ga,-0.13541,0.0,na,0.0099,,,,,
JVASP-2766,BaCd2As2,-0.66535,0.144,na,0.0,,,,,
JVASP-103141,Mg2PdN2,-0.48571,0.0,na,0.1952,,,,,
JVASP-101516,Rb2AgPdF6,-2.07486,0.0,0.0,0.0,,,,,
JVASP-1780,LiIn2Rh,-0.40097,0.0,0.0,0.0,,,,,
JVASP-101764,FeO,-1.01407,0.0,na,0.1946,,,,,
JVASP-19880,NdIr2,-0.76908,0.0,0.0,0.0,,,,,
JVASP-18926,LuS,-2.02091,0.0,1.694,0.0,,,,,
JVASP-100513,TmRh3,-0.60246,0.0,0.0,0.0073,,,,,
JVASP-100847,Ce2ZnSb4,-0.71915,0.0,na,0.0,,,,,
JVASP-101839,H8C13O2,-0.07612,2.271,na,0.2311,,,,,
JVASP-101013,PmHoCu2,-0.27619,0.0,0.0,0.0,,,,,
JVASP-100573,K2RbScCl6,-2.06753,4.045,4.5,0.0859,,,,,
JVASP-2916,BaCuSeF,-2.1348,1.56,2.072,0.0,,,,,
JVASP-49750,Nd3SbO7,-3.05886,2.873,na,0.0,,,,,
JVASP-101428,CrGeRu2,-0.14557,0.0,na,0.0,,,,,
JVASP-103434,Pr2Y,0.02084,0.0,na,0.0295,,,,,
JVASP-18897,ZnAgAs,0.05851,0.0,na,0.1503,,,,,
JVASP-103856,HC2S2NO,-0.02222,1.29,na,0.3442,,,,,
JVASP-101068,Bi4Au,0.25573,0.0,0.0,0.269,,,,,
JVASP-14721,NdCo2,-0.07751,0.0,0.0,0.0114,,,,,
JVASP-42170,Li2FeO2F,-2.08882,0.0,0.0,0.1668,,,,,
JVASP-103327,V2OsW,-0.40106,0.0,na,0.0,,,,,
JVASP-100707,AcInAg2,-0.33489,0.0,0.0,0.0,,,,,
JVASP-106234,CdAg3,-0.0476,0.0,0.0,0.0073,,,,,
JVASP-102372,K2LiTaBr6,-1.32858,0.0,na,0.0638,,,,,
JVASP-103612,LaPr3,-0.02806,0.0,na,0.0112,,,,,
JVASP-101795,H2C4S,0.14586,0.448,na,0.2253,,,,,
JVASP-103065,NaBi3I2O4,-1.31966,2.002,3.259,0.0,,,,,