jid,formula,formation_energy_per_atom,optb88vdw_bandgap,mbj_bandgap,ehull,spacegroup_number,natoms,volume,bulk_modulus_kv,shear_modulus_gv
JVASP-85793,TlCuHSeO5,-0.79153,0.253,na,0.0215,,,,,
JVASP-86588,Ba3Nb2CoO9,-2.80792,0.0,0.0,0.0087,,,,,
JVASP-90441,KGaTe2,-0.68922,1.212,na,0.0,,,,,
JVASP-64061,Ba4MnFe,1.53929,0.0,na,1.5492,,,,,
JVASP-48805,Li4MnO2F2,-2.30199,1.763,na,0.0,,,,,
JVASP-97393,Sn3Te3Ir2,-0.39286,0.323,na,0.0,,,,,
JVASP-86734,Nb2Br5,-0.82829,0.0,na,0.1302,,,,,
JVASP-98001,LiMnO4,-1.63722,1.354,na,0.0,,,,,
JVASP-87047,Ca3Ni7B2,-0.40293,0.0,na,0.0,,,,,
JVASP-64020,Ba4VTc,1.72835,0.0,na,1.8508,,,,,
JVASP-64206,Ba4VPb,0.89275,0.0,0.0,1.1975,,,,,
JVASP-90175,ScGeOs,-0.66101,0.0,na,0.0,,,,,
JVASP-64392,KBaV,1.24171,0.0,0.0,1.2446,,,,,
JVASP-63928,Ba4MgMo,1.15842,0.0,na,1.2089,,,,,
JVASP-98302,H9BrO4,-0.9002,3.774,na,0.0132,,,,,
JVASP-16085,Ru,0.11098,0.0,na,0.0,,,,,
JVASP-64749,Ba4LaBi,0.20127,0.0,na,0.6357,,,,,
JVASP-97443,K2Al2B2O7,-2.82824,4.674,na,0.0,,,,,
JVASP-47772,Li3Fe7O12,-1.5476,0.0,na,0.0867,,,,,
JVASP-98736,Nd5Ir3,-0.73104,0.0,na,0.0,,,,,
JVASP-64148,Ba4ScPb,0.38417,0.0,na,0.6889,,,,,
JVASP-97586,CeCuSe2,-1.28242,0.0,na,0.0054,,,,,
JVASP-107745,Nd2Ga5Cu3,-0.49746,0.0,na,0.0,,,,,
JVASP-65033,BeTcCl4,1.24564,0.0,0.0,2.3029,,,,,
JVASP-64108,Ba4CaFe,1.00634,0.0,na,1.0133,,,,,
JVASP-48391,Li4MnV3O8,-2.30648,0.0,na,0.0883,,,,,
JVASP-98048,HoCoSn2,-0.25813,0.0,0.0,0.1914,,,,,
JVASP-64275,Ba4SbPb,-0.00938,0.0,na,0.7758,,,,,
JVASP-64995,ScBe2Cu,-0.04572,0.0,0.0,0.2039,,,,,
JVASP-85863,EuPd2,-0.82253,0.0,na,0.0748,,,,,
JVASP-91798,SmMnSi2,-0.57139,0.0,na,0.0,,,,,
JVASP-85283,ICl,-0.1,1.323,2.455,0.0402,,,,,
JVASP-97866,CdSO3,-1.29553,3.467,na,0.055,,,,,
JVASP-48474,Li2CoO2F,-2.16668,1.119,na,0.0281,,,,,
JVASP-64336,Ba4ScSe,0.30529,0.0,0.0,1.0359,,,,,
JVASP-64917,Be2FeW,-0.20004,0.429,0.467,0.1409,,,,,
JVASP-85669,H3N,-0.28519,4.515,6.942,0.0052,,,,,
JVASP-87109,K3CO3F,-2.16085,4.33,7.167,0.0032,,,,,
JVASP-63973,Ba4PPb,0.22429,0.0,na,0.9895,,,,,
JVASP-97344,FeSO4,-1.28488,0.0,na,0.0012,,,,,
JVASP-107786,MgMnF6,-2.95301,2.157,2.198,0.0,,,,,
JVASP-91526,MnTe,0.05856,0.0,0.0,0.1995,,,,,
JVASP-64614,Ba4CoSe,0.57627,0.0,na,1.3088,,,,,
JVASP-22560,K2PdO2,-1.24162,1.464,1.567,0.0,,,,,
JVASP-97636,CaB3H5O8,-2.04247,5.804,na,0.0,,,,,
JVASP-98455,AsPO5,-1.63714,2.236,na,0.0,,,,,
JVASP-65075,LiBe2Cl,0.48398,0.0,na,1.4761,,,,,
JVASP-64685,Be2NiRu,-0.33439,0.0,na,0.0343,,,,,
JVASP-1396,YZn,-0.41173,0.0,na,0.0,,,,,
JVASP-97685,Ca3Mn2Si3O12,-2.85815,0.001,na,0.0,,,,,
JVASP-85717,LuNbO4,-3.36119,3.451,4.144,0.0,,,,,
JVASP-87220,K4CO4,-1.41941,3.211,5.925,0.2731,,,,,
JVASP-85469,InCu6ClO8,-0.91636,0.0,na,0.0,,,,,
JVASP-97932,H4S4N6O,0.1131,1.959,na,0.3762,,,,,
JVASP-64808,Ba4InSe,0.01794,0.0,0.0,0.9521,,,,,
JVASP-64062,Ba4TaSe,0.77538,0.0,0.0,1.506,,,,,
JVASP-63929,Ba4PdPb,0.29936,0.0,na,0.8389,,,,,
JVASP-64880,MnBeCo4,0.35252,0.0,0.0,0.4734,,,,,
JVASP-65112,MnBeCd4,0.66383,0.0,na,0.7292,,,,,
JVASP-90543,La2MoO6,-3.03298,2.449,na,0.0888,,,,,
JVASP-64109,BaCaSc,0.86959,0.0,0.0,0.8775,,,,,
JVASP-98821,SiBr4,-0.79063,3.849,na,0.0,,,,,
JVASP-98508,Cu5Si2S7,-0.5039,0.0,na,0.0,,,,,
JVASP-64149,Ba2NaBi,-0.58065,0.0,na,0.0857,,,,,
JVASP-64021,Ba4TlRh,0.61219,0.0,na,0.8156,,,,,
JVASP-64207,Ba4HfCd,0.77413,0.0,na,0.918,,,,,
JVASP-98570,SbXeOF9,-1.20841,2.229,na,0.0219,,,,,
JVASP-88718,RbBiC4S4N4,-0.0398,2.501,na,0.2287,,,,,
JVASP-42233,LiVF4,-3.03662,0.0,0.0,0.0369,,,,,
JVASP-98367,Ba3Te4O11,-1.95846,3.134,na,0.0,,,,,
JVASP-64276,Ba4TeMo,0.6924,0.0,0.0,1.3282,,,,,
JVASP-91614,ZnCu2GeTe4,-0.17025,0.0,na,0.0034,,,,,
JVASP-53445,TmPaO4,-4.01789,3.029,na,0.0196,,,,,
JVASP-65034,BeRuBr4,1.4801,0.0,na,2.1657,,,,,
JVASP-90632,TbSb2Pd,-0.79296,0.0,na,0.0254,,,,,
JVASP-63974,Ba4TeW,0.78619,0.0,na,1.5148,,,,,
JVASP-42416,Na4WO4,-1.95251,2.285,3.519,0.0,,,,,
JVASP-64550,Ba4CaPt,0.48595,0.0,0.0,0.8543,,,,,
JVASP-49953,CaHfO3,-3.67873,4.568,na,0.0,,,,,
JVASP-90816,SrAs3,-0.65546,0.0,0.058,0.0,,,,,
JVASP-64958,NaBeGe4,0.45983,0.0,na,0.5252,,,,,
JVASP-64686,Ba4VCl,0.74862,0.0,0.0,1.4226,,,,,
JVASP-98623,KH3SO6,-1.21824,4.391,na,0.0673,,,,,
JVASP-75,WSe2,-0.54463,1.046,1.436,0.0,,,,,
JVASP-64616,Ba4LiGa,0.41076,0.0,0.0,0.5611,,,,,
JVASP-64337,Ba4HgBi,0.08848,0.0,0.0,0.6947,,,,,
JVASP-90586,LiMg,-0.06907,0.0,na,0.0453,,,,,
JVASP-63930,Ba4VZn,1.05384,0.0,na,1.156,,,,,
JVASP-64110,Ba4SiSn,0.35514,0.0,na,0.8972,,,,,
JVASP-86105,Bi2Te3,0.00814,0.0,na,0.2469,,,,,
JVASP-64278,KBaZr,1.37274,0.0,na,1.3756,,,,,
JVASP-91995,PaZn3,-0.06982,0.0,na,0.0,,,,,
JVASP-37701,Y3Sn,-0.42732,0.0,na,0.1063,,,,,
JVASP-64022,Ba4CrCo,1.20808,0.0,0.0,1.2134,,,,,
JVASP-65113,BeCd4Rh,0.53006,0.0,na,0.7364,,,,,
JVASP-97444,SiO2,-2.85438,5.205,na,0.0469,,,,,
JVASP-88165,MgB12C2,-0.18454,2.414,na,0.0,,,,,
JVASP-86852,CaCdAu,-0.70078,0.0,na,0.0,,,,,
JVASP-48170,FeOF,-1.70084,0.0,na,0.1401,,,,,
JVASP-5506,AuSeCl7,-0.30824,1.665,2.382,0.0,,,,,
JVASP-98108,RbPrP3HO10,-2.51511,5.513,na,0.0,,,,,
JVASP-64553,Ba4GaSb,0.15031,0.0,na,0.7685,,,,,
JVASP-97816,K2Ta15O32,-2.89384,0.0,na,0.0,,,,,
JVASP-63976,Ba4BeP,0.72529,0.0,na,1.1858,,,,,
JVASP-86506,CeAlO3,-3.48826,0.0,na,0.0076,,,,,
JVASP-86682,CeP2,-1.07707,0.0,0.0,0.0,,,,,
JVASP-64465,Ba4HfBr,0.51678,0.0,0.0,1.1055,,,,,
JVASP-98737,MnTlCl3,-1.08851,0.991,na,0.0,,,,,
JVASP-42811,Li4CoO2F2,-2.19315,0.163,na,0.1921,,,,,
JVASP-50405,Li2V3S6,-1.07491,0.0,na,0.086,,,,,
JVASP-64111,Ba4TcCl,0.75727,0.0,na,1.4313,,,,,
JVASP-86279,Ca3SiBr2,-1.14567,0.0,na,0.219,,,,,
JVASP-85930,BiPO4,-2.05465,3.86,na,0.0055,,,,,
JVASP-64959,LaBe2Rh,0.2198,0.0,na,0.6899,,,,,
JVASP-64618,Ba4YMn,1.2297,0.0,na,1.234,,,,,
JVASP-64393,BaNaIn,0.16113,0.0,0.0,0.4966,,,,,
JVASP-15346,TbSi2Pd2,-0.88518,0.0,na,0.0,,,,,
JVASP-64282,Ba4CoPb,0.73675,0.0,na,1.0434,,,,,
JVASP-63933,Ba4ZrNb,1.31171,0.0,0.0,1.3117,,,,,
JVASP-64063,BaSrTi,1.19689,0.0,0.0,1.2213,,,,,
JVASP-64023,Ba4SnTe,-0.16113,0.0,na,0.8174,,,,,
JVASP-88374,Ba2CaB6O12,-2.89734,5.363,na,0.0,,,,,
JVASP-43530,LiVF4,-3.00952,0.0,na,0.064,,,,,
JVASP-90047,Ti4H3Pd2,-0.34776,0.0,na,0.1634,,,,,
JVASP-42667,SrCaI4,-1.70475,3.513,4.342,0.0598,,,,,
JVASP-49780,Y6TeO12,-3.38028,2.79,na,0.0,,,,,
JVASP-97757,K2ZrCdH16C8O24,-1.3192,3.02,na,0.0314,,,,,
JVASP-64750,Ba4ZrSc,0.87642,0.0,0.0,0.8822,,,,,
JVASP-98831,HgC2N2,0.61807,4.684,na,0.6255,,,,,
JVASP-107746,Nb2Ru,-0.07721,0.0,na,0.1075,,,,,
JVASP-64881,Be2SiBi,0.86409,0.0,na,0.8653,,,,,
JVASP-64338,Ba4YPb,0.31421,0.0,na,0.6189,,,,,
JVASP-64555,Ba4SiHg,0.45246,0.0,na,0.8235,,,,,
JVASP-97588,La3Ni2Sn7,-0.67356,0.0,na,0.0,,,,,
JVASP-63977,Ba4TiW,1.55097,0.0,na,1.6438,,,,,
JVASP-14620,Ga,0.04287,0.0,0.0,0.0,,,,,
JVASP-86159,Ca3SiBr2,-1.15984,0.0,0.0,0.2049,,,,,
JVASP-89980,ThGaIr,-0.95834,0.0,na,0.0,,,,,
JVASP-86212,BaAg2SnSe4,-0.7482,0.111,na,0.0,,,,,
JVASP-32216,ZnH4C2O6,-1.16569,3.157,4.572,0.0299,,,,,
JVASP-42545,Rb3InO3,-1.5471,2.156,na,0.0,,,,,
JVASP-98193,ErB4Rh4,-0.57159,0.0,na,0.0068,,,,,
JVASP-42312,V4OF11,-2.97157,0.0,na,0.016,,,,,
JVASP-64112,Ba4HfV,1.43376,0.0,na,1.4338,,,,,
JVASP-97394,Cd4GeS6,-0.60165,1.236,na,0.0,,,,,
JVASP-18826,MnAlFe2,-0.19524,0.0,0.0,0.0,,,,,
JVASP-86979,ThC2,-0.38818,0.0,na,0.0,,,,,
JVASP-64960,BeFe4Re,0.14577,0.0,na,0.2613,,,,,
JVASP-91751,GaPd,-0.60454,0.0,na,0.0,,,,,
JVASP-12019,CoO2,-0.92667,0.0,0.0,0.1402,,,,,
JVASP-47969,LiNiPO4,-1.96495,0.744,na,0.0177,,,,,
JVASP-107788,SrCrO3,-2.65041,0.0,na,0.0,,,,,
JVASP-2148,Na3P,-0.43602,0.519,na,0.0,,,,,
JVASP-98049,Ta6Fe16Si7,-0.44277,0.0,na,0.0,,,,,
JVASP-91659,PbS,-0.40897,0.82,na,0.247,,,,,
JVASP-63934,Ba4VCr,1.16087,0.0,na,1.1933,,,,,
JVASP-48103,Mn3O5F,-1.90267,0.0,na,0.0,,,,,
JVASP-64283,BaYIn,0.4196,0.0,na,0.8283,,,,,
JVASP-64024,Ba4MgPt,0.49906,0.0,na,0.8376,,,,,
JVASP-64064,Ba4TiSi,0.92931,0.0,na,1.1973,,,,,
JVASP-92204,RbMg6Mo,0.40824,0.0,na,0.412,,,,,
JVASP-87336,Fe2O3,-1.40985,0.0,0.0,0.0398,,,,,
JVASP-64394,Ba4YV,1.11539,0.0,0.0,1.1154,,,,,
JVASP-64751,Ba4TeBr,-0.3809,0.0,0.0,0.8437,,,,,
JVASP-64339,Ba4ZnGa,0.43734,0.0,na,0.6772,,,,,
JVASP-63980,Ba4GaSi,0.51035,0.0,na,0.8473,,,,,
JVASP-65076,BeCuBr,0.11994,0.0,0.0,0.6908,,,,,
JVASP-48933,WOF4,-2.74866,4.343,5.471,0.0,,,,,
JVASP-98002,KMn6P7O24,-2.11996,1.793,na,0.0,,,,,
JVASP-22649,Rb2SnBr6,-1.27064,0.983,2.213,0.0,,,,,
JVASP-64996,Be2TlCd,0.75684,0.0,0.0,0.7593,,,,,
JVASP-1291,YbO,-3.61377,3.581,5.803,0.0,,,,,
JVASP-50768,Cu2OF2,-1.15428,0.0,na,0.1208,,,,,
JVASP-98573,H5C2NO4,-0.85208,3.1,na,0.0224,,,,,
JVASP-64150,Ba4LiBe,0.76939,0.0,0.0,0.7794,,,,,
JVASP-90344,K2SnO6,-1.07459,2.383,na,0.2028,,,,,
JVASP-64918,BeFe4Ge,0.26781,0.0,0.0,0.388,,,,,
JVASP-97817,As2PbO4,-1.34349,2.809,na,0.0,,,,,
JVASP-86379,Mg3Sb2,-0.43096,0.253,na,0.0,,,,,
JVASP-63935,KBaMn,1.02381,0.0,0.0,1.0267,,,,,
JVASP-90861,CeSi2Ag,-0.44911,0.0,na,0.0,,,,,
JVASP-14699,MnTe,0.01227,0.0,0.0,0.1532,,,,,
JVASP-28357,VS2,-0.95914,0.0,na,0.0062,,,,,
JVASP-64113,Ba4TlV,0.96394,0.0,na,1.1287,,,,,
JVASP-2026,NiBr2,-0.37275,0.451,na,0.0,,,,,
JVASP-97345,LaMnO3,-2.88909,0.0,na,0.0,,,,,
JVASP-90774,Zr3Sn,-0.33674,0.0,na,0.0404,,,,,
JVASP-64816,Ba4YTi,0.87961,0.0,0.0,0.8796,,,,,
JVASP-48654,Li2CrO3,-2.18225,0.0,na,0.0903,,,,,
JVASP-97508,V3Pb5ClO12,-2.0406,2.597,na,0.0,,,,,
JVASP-64208,Ba4CdBi,0.08362,0.0,0.0,0.6619,,,,,
JVASP-64066,Ba4InCo,0.81492,0.0,na,1.0203,,,,,
JVASP-64025,Ba4VSn,0.88673,0.0,na,1.2295,,,,,
JVASP-64689,Ba4NaTa,1.02946,0.0,0.0,1.0473,,,,,
JVASP-64882,BeCd4Ga,0.46592,0.0,na,0.4725,,,,,
JVASP-15183,TbCo2Si2,-0.78936,0.0,0.0,0.0,,,,,
JVASP-90120,Sm2Fe2O5,-2.42316,0.0,na,0.1904,,,,,
JVASP-64466,KBaMo,1.68551,0.0,0.0,1.6884,,,,,
JVASP-97867,K4Nb11Al2O20F,-2.60529,0.644,na,0.0,,,,,
JVASP-98509,La2SiO5,-3.57595,4.573,na,0.0,,,,,
JVASP-65077,Mg4MnBe,0.64062,0.0,na,0.6994,,,,,
JVASP-44085,In3NO3,-1.19241,0.225,1.48,0.0269,,,,,
JVASP-63984,Ba4VGe,1.04562,0.0,na,1.3357,,,,,
JVASP-97590,CeS2,-1.91001,0.0,na,0.0,,,,,
JVASP-64151,KBaIn,0.15173,0.0,0.0,0.486,,,,,
JVASP-14835,Er,0.0,0.0,0.0,0.0,,,,,
JVASP-65114,BeCrP,0.25553,0.0,na,0.607,,,,,
JVASP-87919,Li2BPt3,-0.57925,0.0,na,0.0,,,,,
JVASP-43762,Li3FeF6,-2.78935,1.254,na,0.0317,,,,,
JVASP-90240,HfGeRh,-0.83588,0.0,na,0.0274,,,,,
JVASP-97933,MgH6Br2N2,-0.75701,4.178,na,0.0,,,,,
JVASP-98738,Zr2Cr4Si5,-0.46986,0.0,na,0.0079,,,,,
JVASP-63936,Ba4BeSi,0.84751,0.0,na,1.0468,,,,,
JVASP-64752,Ba4MoBr,0.73776,0.0,0.0,1.3265,,,,,
JVASP-85372,CeSiHRu,-0.71764,0.0,na,0.0,,,,,
JVASP-87050,Ba2ZrO4,-3.34975,3.212,3.761,0.0,,,,,
JVASP-91704,PuFeC2,-0.25582,0.0,0.0,0.0,,,,,
JVASP-88567,Y4OsBr4,-1.37849,0.654,na,0.0,,,,,
JVASP-88845,Rb2PbO3,-1.38477,1.37,na,0.0,,,,,
JVASP-64114,Ba4CuGe,0.54084,0.0,na,0.8736,,,,,
JVASP-64822,Ba4CdSb,0.09474,0.0,na,0.7191,,,,,
JVASP-85566,SnRh2,-0.31379,0.0,na,0.0,,,,,
JVASP-98457,Sm4Si2Se3O7,-2.97952,2.438,na,0.0,,,,,
JVASP-64067,Ba4SrRe,1.1784,0.0,na,1.1975,,,,,
JVASP-97637,BTe3O3F15,-1.98333,3.569,na,0.0062,,,,,
JVASP-91945,Zn3CrTe4,-0.2553,0.0,0.0,0.131,,,,,
JVASP-65035,NaMn4Be,0.65863,0.0,na,0.7194,,,,,
JVASP-85794,LaHBr2,-1.69392,3.835,3.77,0.0,,,,,
JVASP-64026,Ba4SiTe,0.09986,0.0,na,0.935,,,,,
JVASP-98303,SrH16O10,-1.1274,3.742,na,0.0153,,,,,
JVASP-90447,CeMg6B,0.24258,0.0,na,0.3468,,,,,
JVASP-98241,KAlO2,-2.84719,4.236,na,0.0,,,,,
JVASP-64209,Ba4MgSe,0.11541,0.0,0.0,0.8965,,,,,
JVASP-98052,Ca2BClO3,-3.05094,4.716,na,0.0,,,,,
JVASP-64471,Ba4InHg,0.25614,0.0,na,0.6314,,,,,
JVASP-97509,NpO2F2,-2.64794,0.0,na,0.5067,,,,,
JVASP-63986,Ba4RuCl,0.59448,0.0,na,1.2685,,,,,
JVASP-64622,Ba4NbCu,1.12213,0.0,0.0,1.1649,,,,,
JVASP-64152,Ba4BeCl,0.41879,0.0,na,1.0928,,,,,
JVASP-64691,Ba4TiTl,0.72923,0.0,0.0,0.894,,,,,
JVASP-89906,UGaRu,-0.35761,0.0,na,0.038,,,,,
JVASP-107748,MnMoAs2,-0.19598,0.0,na,0.0261,,,,,
JVASP-64755,Ba4GaTe,0.03292,0.0,na,0.8064,,,,,
JVASP-64397,KBaHf,1.50395,0.0,0.0,1.5068,,,,,
JVASP-65079,BeNb4Pb,0.63507,0.0,na,0.6979,,,,,
JVASP-97395,K5SnSb3,-0.51804,0.497,na,0.0,,,,,
JVASP-89043,Ba5V5O14,-2.88473,0.088,na,0.0205,,,,,
JVASP-87110,Rb3CO3F,-2.12212,3.919,na,0.0062,,,,,
JVASP-64559,Ba4ZrSb,0.48344,0.0,0.0,0.9639,,,,,
JVASP-43643,Li2CoSnO4,-1.68028,0.0,na,0.1335,,,,,
JVASP-18464,Li4H4Rh,-0.44933,0.0,na,0.0246,,,,,
JVASP-86785,Lu5NiPb3,-0.51183,0.0,na,0.0,,,,,
JVASP-48806,LiVOF3,-2.95106,0.023,na,0.0192,,,,,
JVASP-89293,FeSb2O6,-1.45935,0.0,na,0.0148,,,,,
JVASP-98840,Zr2Cu,-0.09724,0.0,na,0.0632,,,,,
JVASP-64823,Ba4PdBr,0.1415,0.0,na,0.965,,,,,
JVASP-64115,Ba4CaW,1.16364,0.0,na,1.2627,,,,,
JVASP-65115,BeCr4Sn,0.44771,0.0,0.0,0.5001,,,,,
JVASP-64693,BaSrSc,0.86772,0.0,na,0.8921,,,,,
JVASP-90634,CeMg6Fe,0.19134,0.0,na,0.2172,,,,,
JVASP-64068,Ba4SnSb,-0.01437,0.0,na,0.8088,,,,,
JVASP-64472,Ba4LiSb,0.15964,0.0,na,0.6727,,,,,
JVASP-64027,Ba4NiSe,0.3845,0.0,na,1.1151,,,,,
JVASP-23437,HgSb2O6,-1.20483,0.486,2.029,0.0,,,,,
JVASP-91527,CeNiAsO,-1.98059,0.0,na,0.0,,,,,
JVASP-64211,Ba4NaMo,1.01163,0.0,na,1.0295,,,,,
JVASP-98110,H10PtCN8O2,-0.13189,2.092,na,0.2621,,,,,
JVASP-48581,V3OF7,-2.85176,0.0,na,0.0792,,,,,
JVASP-97349,SrIn4Pd,-0.48539,0.0,na,0.0,,,,,
JVASP-63987,Ba4MnPd,1.21577,0.0,0.0,1.4505,,,,,
JVASP-64153,Ba4ZnSe,0.1505,0.0,na,0.9833,,,,,
JVASP-42920,Li3Fe4B4O12,-2.00823,0.0,na,0.0954,,,,,
JVASP-48315,Fe8O9,-1.11436,0.0,na,0.1651,,,,,
JVASP-97445,Ba3Zn5In2O11,-2.02627,1.704,na,0.0,,,,,
JVASP-1248,BeTe,-0.42305,2.202,2.821,0.0,,,,,
JVASP-64626,Ba4CaMo,1.10671,0.0,0.0,1.113,,,,,
JVASP-52553,K2SnO2,-1.60042,1.779,7.358,0.0,,,,,
JVASP-107789,VPbO3,-2.05776,0.0,na,0.0501,,,,,
JVASP-64398,Ba4BeGa,0.74578,0.0,na,0.8835,,,,,
JVASP-42728,Fe6O11F,-1.47502,0.0,0.0,0.0206,,,,,
JVASP-97686,YbCrSb3,-0.34668,0.0,na,0.0597,,,,,
JVASP-98510,KNO3,-1.06493,2.824,na,0.0,,,,,
JVASP-90544,La2CrO6,-2.8292,0.585,na,0.0,,,,,
JVASP-64961,BeIr4Se,0.83953,0.0,na,1.1496,,,,,
JVASP-87221,Ba2LaIrO6,-2.52337,0.0,na,0.0186,,,,,
JVASP-64757,BaZr4Tl,0.41006,0.0,na,0.5749,,,,,
JVASP-22622,AlFeF5,-2.70425,0.045,0.558,0.3034,,,,,
JVASP-86735,Tb2B2C3,-0.40441,0.0,na,0.0993,,,,,
JVASP-98625,CeMg2H7,-0.39162,0.002,na,0.006,,,,,
JVASP-64284,KBa4W,1.23284,0.0,0.0,1.3271,,,,,
JVASP-64116,Ba4HfMn,1.14589,0.0,na,1.2139,,,,,
JVASP-48475,Mn3O2F4,-2.20488,0.004,na,0.0,,,,,
JVASP-15302,PrSi2Cu2,-0.54953,0.0,0.0,0.0,,,,,
JVASP-38264,MnTl3,0.45643,0.0,na,0.4564,,,,,
JVASP-64340,Ba4GaCl,0.0616,0.0,0.0,0.8733,,,,,
JVASP-97511,KCuCl3,-1.1695,0.0,na,0.0,,,,,
JVASP-64697,Ba4SrW,1.15122,0.0,0.0,1.2631,,,,,
JVASP-91854,CoCu2SnS4,-0.36433,0.0,0.0,0.0801,,,,,
JVASP-38157,Rb4NO,-0.29858,0.0,0.0,0.346,,,,,
JVASP-64028,Ba4CdPt,0.4445,0.0,na,0.8765,,,,,
JVASP-65080,TaBePd4,0.18287,0.0,0.0,0.6892,,,,,
JVASP-98372,CeSi3N5,-1.33783,0.042,na,0.0,,,,,
JVASP-63938,BaNaBr,-0.75473,0.609,na,0.4426,,,,,
JVASP-64474,Ba4BeSn,0.57434,0.0,0.0,0.9171,,,,,
JVASP-98004,Ca3Mn2O7,-2.65894,0.344,na,0.0,,,,,
JVASP-91569,SrMnSb2,-0.42989,0.0,na,0.1223,,,,,
JVASP-42420,FeOF,-1.80952,0.0,na,0.0314,,,,,
JVASP-90817,Na,0.03589,0.0,na,0.0,,,,,
JVASP-85285,Sr8Fe3N8,-0.82016,0.0,na,0.0243,,,,,
JVASP-64399,Ba4HfZn,0.87491,0.0,na,0.9771,,,,,
JVASP-86507,YbCo2Si2,-0.68463,0.0,na,0.0,,,,,
JVASP-64919,BeMoBr4,1.36593,0.0,0.0,2.2387,,,,,
JVASP-90719,PrClO2,-1.89827,0.0,0.0,0.5342,,,,,
JVASP-90176,DyMgPd,-0.72078,0.0,na,-0.0,,,,,
JVASP-88720,K11LiMn4O16,-1.93397,1.154,na,0.0,,,,,
JVASP-91996,Nd2BC,-0.35019,0.0,na,0.0,,,,,
JVASP-64698,BaSrMg,0.42913,0.0,na,0.5366,,,,,
JVASP-97759,TeH5O6,-0.80641,0.651,na,0.1171,,,,,
JVASP-64117,Ba4ScPt,0.6757,0.0,na,1.1079,,,,,
JVASP-97818,S2O5F2,-1.31364,5.55,na,0.0,,,,,
JVASP-64345,Ba4LiP,0.41032,0.0,na,0.9282,,,,,
JVASP-98574,BaH2C2O4,-1.52345,4.422,na,0.126,,,,,
JVASP-86907,YCo3H2,-0.2483,0.0,na,0.1459,,,,,
JVASP-64287,Ba4CrSe,0.4747,0.0,0.0,1.2053,,,,,
JVASP-64758,Ba4LiV,1.08123,0.0,0.0,1.0912,,,,,
JVASP-90048,NdAlCu,-0.42288,0.0,na,0.0,,,,,
JVASP-65081,K4BeW,1.50186,0.0,na,1.6248,,,,,
JVASP-98841,KNa2AlH6,-0.15746,1.504,na,0.1614,,,,,
JVASP-48392,Li3MnP2O8,-2.33073,0.02,na,0.0294,,,,,
JVASP-42943,BaCa2I6,-1.69883,3.341,na,0.0793,,,,,
JVASP-97594,PrCo9Si4,-0.44012,0.0,na,0.0,,,,,
JVASP-91895,Mg7Cr,0.15333,0.0,0.0,0.1533,,,,,
JVASP-63940,Ba4PBr,-0.04893,0.0,na,1.0003,,,,,
JVASP-88169,Ca2CdSb2,-0.86315,0.434,na,0.0,,,,,
JVASP-43305,Li2Ni3SbO8,-1.39052,0.0,0.0,0.0283,,,,,
JVASP-32,Al2O3,-3.31332,6.43,7.571,0.0,,,,,
JVASP-4606,ScAgP2S6,-0.71804,1.9,2.046,0.0,,,,,
JVASP-64825,BaNaLi,0.39341,0.0,0.0,0.4412,,,,,
JVASP-64029,Ba4TiNi,1.16791,0.0,0.0,1.3123,,,,,
JVASP-86683,LaNi2B2C,-0.49791,0.0,na,0.0,,,,,
JVASP-86161,Ba5Al5Pb,-0.427,0.0,na,0.0,,,,,
JVASP-64475,Ba4GeCl,-0.00172,0.0,0.0,0.9623,,,,,
JVASP-98458,La3Ge4Rh4,-0.96907,0.0,na,0.0,,,,,
JVASP-15347,CaCo2Ge2,-0.51457,0.0,0.0,0.0,,,,,
JVASP-98112,RbMnO2,-1.79261,0.55,na,0.0,,,,,
JVASP-90587,Li3Mg,-0.04152,0.0,na,0.0356,,,,,
JVASP-107749,Mn3Si,-0.14871,0.0,na,0.0806,,,,,
JVASP-64699,Ba4GaBr,0.05973,0.0,na,0.7862,,,,,
JVASP-64997,BeP4Ru,0.97487,0.0,0.0,1.3843,,,,,
JVASP-97687,CeCrGe3,-0.42889,0.0,na,0.0,,,,,
JVASP-64069,BaPbBr,-0.60733,0.056,0.0,0.8305,,,,,
JVASP-91615,DyPt,-1.36538,0.0,na,0.0,,,,,
JVASP-64401,Ba4ScSn,0.38107,0.0,na,0.7238,,,,,
JVASP-14621,Yb,0.00894,0.0,na,0.0,,,,,
JVASP-64920,MgBeCr4,0.47561,0.0,na,0.528,,,,,
JVASP-88019,EuF2,-3.53085,0.0,8.252,0.3498,,,,,
JVASP-98745,V2S2O11,-1.77176,2.056,na,0.0,,,,,
JVASP-64759,Ba4CdCo,0.86594,0.0,na,1.0118,,,,,
JVASP-64118,Ba4BeGe,0.73173,0.0,na,1.0218,,,,,
JVASP-14939,Ti3Hg,0.02284,0.0,0.0,0.0716,,,,,
JVASP-64155,KBaTa,1.83653,0.0,0.0,1.8394,,,,,
JVASP-98053,Bi2Pd3S2,-0.32942,0.0,0.0,0.0584,,,,,
JVASP-64030,Ba4BeFe,1.39024,0.0,na,1.4578,,,,,
JVASP-86450,Yb2Si2O7,-2.83756,0.0,0.0,0.1448,,,,,
JVASP-86038,Bi2MoO6,-1.76008,0.268,0.812,0.0079,,,,,
JVASP-64883,TaBe2Os,-0.06024,0.0,0.0,0.1949,,,,,
JVASP-38226,MnSn3,0.33914,0.0,na,0.3391,,,,,
JVASP-63941,Ba4PtCl,0.12839,0.0,na,1.0904,,,,,
JVASP-97638,Ba3ErMn2O9,-2.77491,0.0,na,0.0,,,,,
JVASP-90346,CoI2N6,2.34588,0.0,na,2.3592,,,,,
JVASP-98009,Ce2InPt2,-1.10553,0.0,na,0.0,,,,,
JVASP-97868,Ca2As3Pb3ClO12,-1.86849,3.375,na,0.0,,,,,
JVASP-63988,KBaSn,-0.07765,0.0,0.0,0.4401,,,,,
JVASP-22561,Cs2TeI6,-0.88194,1.224,1.627,0.0,,,,,
JVASP-16219,Y3TlC,-0.57553,0.0,0.0,0.0,,,,,
JVASP-64962,Be2PtPb,0.37306,0.0,na,0.7598,,,,,
JVASP-65082,BeTeP4,0.81053,0.0,na,0.9515,,,,,
JVASP-98304,SrH16O10,-1.11702,3.65,na,0.0257,,,,,
JVASP-64560,Ba4YCd,0.44343,0.0,0.0,0.5873,,,,,
JVASP-97396,BaGa2Ge2O8,-2.13204,3.167,na,0.0,,,,,
JVASP-64826,Ba4TeCl,-0.38389,0.0,0.0,0.9259,,,,,
JVASP-86280,PrAlPt,-1.08435,0.0,na,0.0,,,,,
JVASP-90862,BC2N,-0.02559,0.0,na,0.6704,,,,,
JVASP-87920,K3InP2,-0.47024,0.859,na,0.0,,,,,
JVASP-86596,AuCClO,-0.44892,2.542,3.239,0.1385,,,,,
JVASP-86381,CaSi2,-0.42703,0.0,na,0.0,,,,,
JVASP-64074,Ba4ZrSi,0.83395,0.0,na,1.1374,,,,,
JVASP-50409,Li8BiS6,-1.193,0.0,na,0.1014,,,,,
JVASP-64762,Ba4ScTl,0.45842,0.0,na,0.6232,,,,,
JVASP-64921,Mn4BeRe,0.09307,0.0,na,0.1827,,,,,
JVASP-65036,YSc4Be,0.46106,0.0,0.0,0.5029,,,,,
JVASP-97934,KMnH24C14N8,-0.05762,0.04,na,0.1718,,,,,
JVASP-42668,SrCaI4,-1.65526,3.113,3.88,0.1093,,,,,
JVASP-64212,Ba4MgTi,0.81941,0.0,0.0,0.8699,,,,,
JVASP-64031,Ba4SiCl,0.10804,0.0,na,0.9813,,,,,
JVASP-14836,Y,0.0192,0.0,0.0,0.0,,,,,
JVASP-42234,Li3Cr2Ni2O8,-1.79679,0.0,na,0.0508,,,,,
JVASP-63942,Ba4CuMo,1.23259,0.0,na,1.2754,,,,,
JVASP-91660,LaCuSb2,-0.74576,0.0,na,0.0016,,,,,
JVASP-42591,Ta2CrNO5,-2.33225,0.0,na,0.188,,,,,
JVASP-91799,LiNbF6,-3.18408,5.152,na,0.0,,,,,
JVASP-3324,Pr2TeO2,-3.04152,1.791,2.49,0.0,,,,,
JVASP-63989,Ba4SiPb,0.35959,0.0,na,0.8636,,,,,
JVASP-90775,ZrSn,-0.18127,0.0,0.0,0.3159,,,,,
JVASP-92205,BaMg6Ga,-0.03277,0.0,na,0.1161,,,,,
JVASP-88375,BaCaGaF7,-3.61637,6.055,na,0.0,,,,,
JVASP-43306,Ni2PO5,-1.47396,0.0,na,0.0098,,,,,
JVASP-90242,Sm2Fe2Se2O3,-2.04024,0.0,na,0.129,,,,,
JVASP-48105,LiCoSiO4,-2.00157,0.0,na,0.2115,,,,,
JVASP-85718,BaTiO3,-2.50585,0.294,2.692,0.8648,,,,,
JVASP-98511,Dy6Fe16O,-0.39043,0.0,na,0.0,,,,,
JVASP-64346,Ba2NaHf,0.62166,0.0,0.0,0.6484,,,,,
JVASP-85865,GaPd2,-0.60261,0.0,na,0.0,,,,,
JVASP-98114,Sr2CoSe2Cl2O6,-1.74793,0.344,na,0.0,,,,,
JVASP-64828,Ba4SrCo,0.79485,0.0,na,0.8158,,,,,
JVASP-64630,Ba4YTe,0.16714,0.0,0.0,0.803,,,,,
JVASP-98194,KNaLi2S2O8,-2.01126,5.472,na,0.0,,,,,
JVASP-48172,Li5Ti2Co5O12,-1.92266,0.0,0.0,0.1369,,,,,
JVASP-64963,BeCo4Os,0.27652,0.0,na,0.3876,,,,,
JVASP-49954,CaAsH5O6,-1.43657,3.768,5.694,0.0647,,,,,