jid,formula,formation_energy_per_atom,optb88vdw_bandgap,mbj_bandgap,ehull,spacegroup_number,natoms,volume,bulk_modulus_kv,shear_modulus_gv
JVASP-99842,SbPbO3,-1.28304,0.0,na,0.1476,,,,,
JVASP-15021,MgAg,-0.26486,0.0,na,0.0,,,,,
JVASP-17900,MgFeF6,-2.65418,0.0,0.0,0.0,,,,,
JVASP-15792,CaSi2Au2,-0.46929,0.0,0.0,0.0095,,,,,
JVASP-102900,Rb2TlInBr6,-1.22796,1.504,na,0.0284,,,,,
JVASP-103314,Tb3Pr,0.02538,0.0,na,0.0313,,,,,
JVASP-102976,Pu3Th,-0.08022,0.0,na,0.2853,,,,,
JVASP-99687,K2NaTmCl6,-2.17017,5.05,na,0.0,,,,,
JVASP-99642,YbPr3,0.04925,0.0,na,0.059,,,,,
JVASP-1957,AgI,-0.20327,1.26,2.868,0.0035,,,,,
JVASP-100554,Mg4SiGe,-0.27947,0.301,na,0.001,,,,,
JVASP-3969,K3IO,-1.42592,1.24,2.779,0.0,,,,,
JVASP-107869,Rb2InGaI6,-0.90885,0.0,na,0.0245,,,,,
JVASP-2676,MgPdF6,-2.2598,1.941,1.89,0.0,,,,,
JVASP-96971,AgN3O4,0.04508,1.624,na,0.2612,,,,,
JVASP-103406,UF3,-3.49948,0.0,0.0,0.0262,,,,,
JVASP-101163,LiSiAg2,-0.04116,0.0,0.0,0.1122,,,,,
JVASP-100613,PmNdHg2,-0.38224,0.0,na,0.0057,,,,,
JVASP-42889,Ti2AlMo,-0.31592,0.0,0.0,0.0,,,,,
JVASP-103051,SrLaCuO4,-2.48506,0.0,na,0.0033,,,,,
JVASP-100946,YbAc3,0.0007,0.0,na,0.0092,,,,,
JVASP-15571,SmCo3B2,-0.44861,0.0,0.0,0.0132,,,,,
JVASP-103224,AlZnCu2,-0.13676,0.0,na,0.0137,,,,,
JVASP-99986,InCuTeSe,-0.32147,0.041,na,0.0188,,,,,
JVASP-102341,In2Te3,-0.09131,0.0,na,0.1731,,,,,
JVASP-99886,RbP2Rh2,-0.75519,0.0,na,0.0,,,,,
JVASP-100195,Li3Ho,0.22839,0.0,na,0.2291,,,,,
JVASP-99460,K2EuAuCl6,-2.01472,0.0,na,0.0,,,,,
JVASP-100499,PmTmAl2,-0.40007,0.0,0.0,0.0019,,,,,
JVASP-14891,AlBMo,-0.40975,0.0,na,0.0,,,,,
JVASP-101415,Tb3Sc,0.03296,0.0,0.0,0.033,,,,,
JVASP-100747,PmHoAl2,-0.40744,0.0,0.0,0.0049,,,,,
JVASP-101223,Ce4Ni3Pt,-0.6003,0.0,na,0.0,,,,,
JVASP-103127,AlInSb2,-0.15849,0.242,0.942,0.0099,,,,,
JVASP-99928,SrCaS2,-2.34105,2.398,3.472,0.0318,,,,,
JVASP-101654,SrRhO3,-1.85628,0.0,na,0.0202,,,,,
JVASP-100793,Th4AlGe,-0.41297,0.0,na,0.0055,,,,,
JVASP-15239,U2AsN2,-1.45381,0.0,na,0.0,,,,,
JVASP-106206,K2InAgI6,-0.78646,0.0,na,0.0745,,,,,
JVASP-103706,LaGa3Pd,-0.73204,0.0,na,0.0,,,,,
JVASP-101545,Ca3Cd,-0.17444,0.0,na,0.0514,,,,,
JVASP-101059,ScSn,-0.46455,0.0,na,0.1413,,,,,
JVASP-99515,SmS2,-1.86819,0.0,na,0.0515,,,,,
JVASP-100086,K2LiRuF6,-2.59974,0.0,0.0,0.0,,,,,
JVASP-101705,Na2Mn3Te4,-0.3043,0.0,na,0.1237,,,,,
JVASP-15711,BaAs2Pd2,-0.75939,0.0,na,0.0206,,,,,
JVASP-101467,CeGaCu4,-0.23652,0.0,na,0.0,,,,,
JVASP-99749,AlNi3,-0.43087,0.0,na,0.0163,,,,,
JVASP-99798,LiY3,0.19201,0.0,na,0.1922,,,,,
JVASP-101786,H3C3O,-0.29399,3.24,na,0.1717,,,,,
JVASP-15090,CeCr2B6,-0.60373,0.0,na,0.0,,,,,
JVASP-97036,SrFe2As2,-0.58402,0.0,na,0.0,,,,,
JVASP-100838,Dy2Al3Co,-0.47403,0.0,na,0.0413,,,,,
JVASP-100877,Na2RuAuF6,-1.71272,0.0,na,0.3167,,,,,
JVASP-101490,K2ScInBr6,-1.55299,1.975,na,0.0,,,,,
JVASP-96974,RbFe2Se3,-0.56869,0.0,na,0.0005,,,,,
JVASP-99413,Na2TlAgF6,-1.93856,0.0,1.301,0.1911,,,,,
JVASP-100340,SrSiNi,-0.48136,0.0,na,0.0,,,,,
JVASP-17901,Se2Cl2O5,0.07381,0.0,na,0.5631,,,,,
JVASP-100691,Rb2InAuCl6,-1.28732,0.0,na,0.0218,,,,,
JVASP-99688,K2NaLuCl6,-2.17239,5.078,na,0.0,,,,,
JVASP-102220,CrFeS2,-0.4037,0.0,na,0.214,,,,,
JVASP-99843,Sm2IrAu,-0.83689,0.0,na,0.0,,,,,
JVASP-21537,RbOs2O6,-1.34555,0.0,na,0.0,,,,,
JVASP-100294,DyB3Mo,-0.61227,0.0,na,0.0,,,,,
JVASP-102977,Rb3Mg,0.0944,0.0,na,0.1171,,,,,
JVASP-103600,Fe3Au,0.15105,0.0,na,0.1538,,,,,
JVASP-42160,YbHfO3,-3.83767,4.631,na,0.0,,,,,
JVASP-107876,BaNiIO6,-1.24466,0.0,na,0.0,,,,,
JVASP-19877,NpSn3,-0.21509,0.0,0.0,0.0,,,,,
JVASP-54714,H7BrO3,-0.86548,4.076,6.236,0.0255,,,,,
JVASP-16208,Hf2Si,-0.68063,0.0,0.0,0.0,,,,,
JVASP-99600,MgAu2,-0.50279,0.0,0.0,0.0037,,,,,
JVASP-50826,BSbO3,-1.9648,2.899,4.117,0.0273,,,,,
JVASP-99555,MnCoB,-0.26066,0.0,na,0.0387,,,,,
JVASP-100249,Tl3As,0.03511,0.0,na,0.0351,,,,,
JVASP-102108,DyLuTl2,-0.30713,0.0,na,0.0,,,,,
JVASP-103317,TbMgTl2,-0.2312,0.0,na,0.0326,,,,,
JVASP-100748,PmNd,0.02734,0.0,na,0.0386,,,,,
JVASP-99464,K2LiTaCl6,-1.64073,0.0,na,0.1114,,,,,
JVASP-3972,PdS2Cl6,-0.29251,1.452,1.496,0.0,,,,,
JVASP-100434,AlInAg2S4,-0.66225,1.061,2.283,0.0018,,,,,
JVASP-102288,PmErTl2,-0.36871,0.0,0.0,0.0,,,,,
JVASP-100154,CdPd3,-0.24463,0.0,0.0,0.0185,,,,,
JVASP-101003,NaCd2In,-0.1256,0.0,0.0,0.0004,,,,,
JVASP-99643,Zr3Ga,-0.33467,0.0,0.0,0.0119,,,,,
JVASP-100948,AcNdMg2,-0.0993,0.0,na,0.0,,,,,
JVASP-100556,LaMnFeGe2,-0.462,0.0,na,0.0098,,,,,
JVASP-52840,RbCaH6N3,-0.55483,2.229,4.446,0.0,,,,,
JVASP-101112,SrLaCo2O6,-2.23939,0.0,na,0.0009,,,,,
JVASP-100380,LaCu2Ni3,-0.30208,0.0,na,0.0,,,,,
JVASP-3237,ScTlS2,-1.51723,0.998,1.428,0.0,,,,,
JVASP-100196,Li3Eu,0.21632,0.0,na,0.2171,,,,,
JVASP-101608,SnHg3,0.25441,0.0,na,0.2544,,,,,
JVASP-103052,SrCaSi4,-0.40676,0.0,na,0.0062,,,,,
JVASP-101416,TlZn3,0.19157,0.0,na,0.1916,,,,,
JVASP-20081,TmAs,-1.56028,0.0,0.0,0.0,,,,,
JVASP-99987,HfZrCN,-1.52652,0.0,na,0.0098,,,,,
JVASP-100658,HfInPd2,-0.63322,0.0,0.0,0.0401,,,,,
JVASP-100088,K2ScHgI6,-1.01335,0.0,na,0.1211,,,,,
JVASP-102343,La4GaSi3,-0.75057,0.0,na,0.0,,,,,
JVASP-100038,AlSb,0.03697,0.0,0.0,0.2801,,,,,
JVASP-99799,LiY2Hg,-0.19629,0.0,na,0.0322,,,,,
JVASP-99930,Sr2FeRuO6,-2.12878,0.0,na,0.0221,,,,,
JVASP-57046,RbCo2S2,-0.71261,0.0,0.0,0.0,,,,,
JVASP-106208,K2HgRhF6,-2.01463,0.0,0.398,0.125,,,,,
JVASP-101494,K2InGaBr6,-1.18585,0.621,na,0.0458,,,,,
JVASP-103131,MgAl2Ge2,-0.15004,0.0,na,0.0,,,,,
JVASP-101787,HCF,-0.81656,7.308,na,0.1976,,,,,
JVASP-99750,Ac3Eu,0.03422,0.0,na,0.0428,,,,,
JVASP-100694,Rb2InAuBr6,-1.06131,0.0,na,0.0527,,,,,
JVASP-15828,TaGe2,-0.15821,0.0,na,0.0125,,,,,
JVASP-102169,TmFeCu,-0.14806,0.0,0.0,0.0902,,,,,
JVASP-101755,SiSnN2,-0.55687,0.88,0.901,0.1413,,,,,
JVASP-100750,PmZr,0.18252,0.0,na,0.1825,,,,,
JVASP-100295,Lu3PbC,-0.62221,0.0,na,0.0,,,,,
JVASP-14947,SmTl,-0.39701,0.0,na,0.0,,,,,
JVASP-103708,LaThPb6,-0.3892,0.0,na,0.0003,,,,,
JVASP-99601,MnV2Fe,-0.21017,0.0,na,0.0184,,,,,
JVASP-102903,Rb2YHgI6,-1.12561,0.0,na,0.1236,,,,,
JVASP-103654,SrRhO3,-1.8666,0.0,na,0.0099,,,,,
JVASP-96978,K2VO2F3,-2.855,2.794,na,0.0,,,,,
JVASP-49747,Ho2CuO4,-2.95825,0.0,na,0.008,,,,,
JVASP-18594,TbAg2,-0.3558,0.0,0.0,0.0,,,,,
JVASP-3525,K2PtCl4,-1.40526,1.618,2.205,0.0205,,,,,
JVASP-99414,K2PrAgI6,-1.15228,2.643,3.368,0.074,,,,,
JVASP-100614,PmNdZn2,-0.36254,0.0,0.0,0.0,,,,,
JVASP-100879,K2LiAuF6,-2.286,0.404,1.657,0.0667,,,,,
JVASP-101655,MnCu2GeTe4,-0.07279,0.0,0.0,0.0397,,,,,
JVASP-101164,LiErSe2,-1.7182,0.174,0.776,0.0636,,,,,
JVASP-103408,TiNF,-2.24332,1.649,2.147,0.1456,,,,,
JVASP-99844,SmPa,0.20139,0.0,na,0.2468,,,,,
JVASP-100250,YbHoPd2,-0.9746,0.0,na,0.0027,,,,,
JVASP-28509,Te2Mo2WSe4,-0.40684,0.472,na,0.1242,,,,,
JVASP-100341,Ta3B4W3,-0.5899,0.0,na,0.0947,,,,,
JVASP-101469,BaGeAu3,-0.55887,0.0,na,0.0,,,,,
JVASP-14983,DyAg2,-0.36327,0.0,na,0.0,,,,,
JVASP-102109,DyErTl2,-0.33693,0.0,na,0.0013,,,,,
JVASP-103225,AcScO3,-3.71469,3.56,4.596,0.0,,,,,
JVASP-99467,CeHgAu2,-0.5205,0.0,na,0.0649,,,,,
JVASP-15024,CaSi2,-0.42656,0.0,0.0,0.0005,,,,,
JVASP-100839,DyBeCu4,-0.17529,0.0,na,0.0535,,,,,
JVASP-100500,Pr3Zn,-0.07096,0.0,0.0,0.1121,,,,,
JVASP-100197,LiCe2Al,-0.02664,0.0,na,0.1958,,,,,
JVASP-102221,CrFe3Sb4,0.07442,0.0,na,0.0878,,,,,
JVASP-51110,InReGe,0.65981,0.0,0.0,0.6616,,,,,
JVASP-49799,Li2FeS2,-0.87626,0.0,na,0.2694,,,,,
JVASP-15105,Li2GeAu,-0.50596,0.0,na,0.0,,,,,
JVASP-99556,Fe3Co3Ge2,-0.01069,0.0,na,0.0999,,,,,
JVASP-57195,Ba2Mn2As2O,-1.10561,0.0,0.0,0.0853,,,,,
JVASP-99887,SmPOs2C,-0.49816,0.0,na,0.17,,,,,
JVASP-52275,PrYO2,-3.09538,0.0,na,0.0571,,,,,
JVASP-100435,AlCoNi6,-0.20522,0.0,na,0.0238,,,,,
JVASP-99988,HfTaV4,-0.03075,0.0,na,0.0193,,,,,
JVASP-100794,ThAl2Ni3,-0.55415,0.0,0.0,0.0711,,,,,
JVASP-103604,Ho2TlZn,-0.35708,0.0,na,0.003,,,,,
JVASP-14892,CrSi,-0.17649,0.0,na,0.0632,,,,,
JVASP-2106,TlF,-1.83209,3.11,3.802,0.0134,,,,,
JVASP-101224,CaZnAg,-0.38818,0.0,0.0,0.0,,,,,
JVASP-100089,K2CuMoBr6,-0.95985,0.453,na,0.0895,,,,,
JVASP-18501,NdI2,-1.35451,0.0,na,0.0,,,,,
JVASP-100695,Rb2NaErCl6,-2.21699,5.294,na,0.0,,,,,
JVASP-12057,ZrTiTe4,-0.80493,0.0,0.0,0.0237,,,,,
JVASP-101756,BaSr2N2,-0.62158,0.998,na,0.064,,,,,
JVASP-106220,Na2PrCuCl6,-1.57686,1.279,na,0.2569,,,,,
JVASP-100296,TiCu2Sn,-0.0497,0.0,na,0.1222,,,,,
JVASP-99931,SnPbSe2,-0.53463,0.115,na,0.0174,,,,,
JVASP-99602,PmMg2Sc,-0.05844,0.0,na,0.0337,,,,,
JVASP-17902,CaTiS2,-1.72683,0.0,na,0.2529,,,,,
JVASP-102979,SbPd3,-0.31052,0.0,na,0.0073,,,,,
JVASP-99689,Na3IrF6,-2.26496,2.169,2.629,0.0577,,,,,
JVASP-102905,Rb2LiPrCl6,-2.18125,4.769,na,0.0221,,,,,
JVASP-101495,K2InHgCl6,-1.28592,0.0,na,0.037,,,,,
JVASP-100382,InPb,0.00444,0.0,na,0.0127,,,,,
JVASP-102170,U2Al3Ga,-0.19356,0.0,na,0.0013,,,,,
JVASP-99415,TbRb2CuCl6,-1.88415,2.712,na,0.0041,,,,,
JVASP-2038,MnCl2,-1.06145,1.553,na,0.0,,,,,
JVASP-16106,TbCr2Si2,-0.37921,0.0,0.0,0.1055,,,,,
JVASP-100751,PmSmIn2,-0.50868,0.0,0.0,0.0087,,,,,
JVASP-101060,SrH3Pd,-0.54927,0.0,0.0,0.0,,,,,
JVASP-100615,PrInPd2,-0.71982,0.0,na,0.0,,,,,
JVASP-101165,LiTa2O6,-2.6937,0.0,na,0.1164,,,,,
JVASP-100557,KCeF4,-3.79864,0.0,na,0.0,,,,,
JVASP-100501,SrY,0.2158,0.0,na,0.2158,,,,,
JVASP-43126,Li2CoCuO4,-1.3984,0.0,na,0.1209,,,,,
JVASP-51191,CuRe2Cl,1.1984,0.0,na,1.4266,,,,,
JVASP-48301,LiFePO4,-2.00873,0.011,na,0.0673,,,,,
JVASP-101890,TiH10C6O4,-0.561,1.677,na,0.2657,,,,,
JVASP-100659,Dy2PdPt,-1.17873,0.0,na,0.0,,,,,
JVASP-15047,CdAu,-0.17486,0.0,0.0,0.0162,,,,,
JVASP-100880,K2YInF6,-3.17542,3.203,4.407,0.1293,,,,,
JVASP-99516,CaBC,-0.20946,0.0,0.0,0.1649,,,,,
JVASP-21538,YAl3Ni2,-0.69593,0.0,na,0.0,,,,,
JVASP-100795,Th2CN,-1.10928,0.0,na,0.0,,,,,
JVASP-103709,La2FeSn4,-0.58531,0.0,na,0.0426,,,,,
JVASP-103655,FeSbRh2,-0.149,0.0,na,0.0661,,,,,
JVASP-103318,Ti2FeTc,-0.47905,0.0,0.0,0.0085,,,,,
JVASP-97037,SrFeAsF,-1.93611,0.0,na,0.0014,,,,,
JVASP-99558,CaNdCrO4,-2.98901,0.379,na,0.0226,,,,,
JVASP-103056,PrYAl4,-0.52777,0.0,na,0.0116,,,,,
JVASP-102289,PuPbO3,-2.43164,0.0,0.0,0.1978,,,,,
JVASP-101004,NaHg3,-0.04894,0.0,0.0,0.0399,,,,,
JVASP-100155,CoW3,-0.17124,0.0,na,0.2838,,,,,
JVASP-106222,Rb2TlAgI6,-0.75675,0.0,na,0.0791,,,,,
JVASP-15757,Sm3AlC,-0.31658,0.0,0.0,0.0,,,,,
JVASP-96979,K2MnSO4F3,-2.23805,0.728,na,0.0,,,,,
JVASP-28386,TaSe2,-0.81731,0.0,0.0,0.0059,,,,,
JVASP-101609,SrPd3,-0.42613,0.0,0.0,0.1336,,,,,
JVASP-103226,AgHg3,0.31533,0.0,na,0.3153,,,,,
JVASP-101225,CaFeSi2Rh,-0.70899,0.0,0.0,0.0074,,,,,
JVASP-100696,Rb3SbF6,-2.70852,3.979,5.344,0.0,,,,,
JVASP-100094,K2GaHgI6,-0.72363,0.0,na,0.1246,,,,,
JVASP-101757,Ba2FeN2,-0.59345,0.051,na,0.1028,,,,,
JVASP-99690,Na3GaCl6,-1.4533,2.884,na,0.1865,,,,,
JVASP-100436,AgSbTeSe,-0.09183,0.0,na,0.0686,,,,,
JVASP-101657,LaMgCu,-0.26823,0.0,na,0.0,,,,,
JVASP-103134,NaBC,-0.12733,1.104,na,0.0,,,,,
JVASP-15208,ErNi2P2,-0.99254,0.0,na,0.0,,,,,
JVASP-99989,HfAl2Zn,-0.38153,0.0,na,0.0,,,,,
JVASP-101496,K2ErAgCl6,-1.8669,3.406,na,0.0,,,,,
JVASP-101470,BaCO3,-2.31165,4.373,na,0.0593,,,,,
JVASP-100251,U3Ge,-0.14543,0.0,na,0.0292,,,,,
JVASP-99644,CaH2,-0.62333,0.896,2.231,0.0624,,,,,
JVASP-100616,PrNdIn2,-0.5122,0.0,na,0.0132,,,,,
JVASP-100383,InGaCuAgSe4,-0.42499,0.084,na,0.0098,,,,,
JVASP-20106,MgRh,-0.50443,0.0,0.0,0.0,,,,,
JVASP-102344,Cr3Ru3C2,0.01026,0.0,na,0.1048,,,,,
JVASP-102222,CeIrPt,-0.92668,0.0,na,0.0221,,,,,
JVASP-22718,Rb2GeF6,-2.89767,5.99,8.369,0.0,,,,,
JVASP-47638,Li3CrCo2O6,-1.789,0.0,na,0.0939,,,,,
JVASP-100343,SrNdAlO4,-3.42183,3.311,na,0.0,,,,,
JVASP-100752,Pr3Tm,0.02779,0.0,na,0.0376,,,,,
JVASP-99845,SrScO3,-3.04713,0.0,0.0,0.1225,,,,,
JVASP-99417,Rb2LaAgCl6,-1.89486,3.454,na,0.0664,,,,,
JVASP-100039,AlVNi2,-0.3919,0.0,0.0,0.0491,,,,,
JVASP-101417,YBi3,-0.36679,0.0,0.0,0.1204,,,,,
JVASP-101113,SrCaAl4,-0.36519,0.0,0.0,0.0236,,,,,
JVASP-99889,Ho2SnAu2,-0.68247,0.0,na,0.2232,,,,,
JVASP-4252,AuCl3,-0.24656,1.118,1.901,0.0,,,,,
JVASP-15617,SrCo2P2,-0.87606,0.0,na,0.0,,,,,
JVASP-100198,LiNi2Sb,-0.29809,0.0,na,0.0114,,,,,
JVASP-2166,KTe,-0.90907,0.626,1.746,0.0,,,,,
JVASP-100840,ErBPtRh2,-0.87812,0.0,0.0,0.0,,,,,
JVASP-102112,Ho2ZnCu,-0.34179,0.0,0.0,0.0116,,,,,
JVASP-4858,TmAgP2Se6,-0.54342,1.667,2.009,0.0,,,,,
JVASP-103410,TiB2Mo,-0.78297,0.0,na,0.0033,,,,,
JVASP-100298,RbCo2As2,-0.43062,0.0,0.0,0.0,,,,,
JVASP-103605,Ho2MgRu,-0.25536,0.0,0.0,0.0276,,,,,
JVASP-100502,Pu3Ru,0.12492,0.0,na,0.4905,,,,,
JVASP-101789,H2C4S,0.12314,0.51,0.537,0.2026,,,,,
JVASP-100881,K2NaGaCl6,-1.67819,2.759,na,0.0556,,,,,
JVASP-51111,KNb2Se,1.15903,0.0,na,1.8213,,,,,
JVASP-99933,SmGa3Pd,-0.66122,0.0,na,0.0,,,,,
JVASP-48359,Co6O7F5,-1.40375,0.0,na,0.0135,,,,,
JVASP-99468,Mg2NiRh,-0.40006,0.0,0.0,0.0,,,,,
JVASP-19911,CeRh2,-0.73961,0.0,na,0.0,,,,,
JVASP-2994,CaMg2Sb2,-0.79933,0.901,1.227,0.0,,,,,
JVASP-101891,TiH22C12O4,-0.35945,1.651,na,0.1671,,,,,
JVASP-100698,BaNiO3,-1.64945,0.0,na,0.2573,,,,,
JVASP-101830,H7C8SN,0.04371,2.098,na,0.1764,,,,,
JVASP-99692,Na3DyCl6,-1.94063,3.937,na,0.1689,,,,,
JVASP-97047,TmAsO4,-2.54475,3.8,na,0.0,,,,,
JVASP-100095,Rb2NdCuCl6,-1.85316,2.452,na,0.0572,,,,,
JVASP-102980,ScAg3,-0.20654,0.0,0.0,0.0588,,,,,
JVASP-15159,HoFe2Si2,-0.67103,0.0,0.0,0.0,,,,,
JVASP-2544,KNbO3,-2.67937,2.089,2.596,0.0,,,,,
JVASP-100439,RbNiO2,-1.09275,0.0,na,0.0368,,,,,
JVASP-1960,Ca2NCl,-1.79758,2.312,3.295,0.0,,,,,
JVASP-22567,SnO2,-1.78586,0.895,2.393,0.0099,,,,,
JVASP-100559,K2PtBr6,-0.7282,0.0,0.0,0.3238,,,,,
JVASP-103320,TiAlIr2,-0.92721,0.0,na,0.0,,,,,
JVASP-14893,CoSi,-0.49735,0.0,0.0,0.0,,,,,
JVASP-99559,BaHgPb,-0.46781,0.0,na,0.0,,,,,
JVASP-102906,NaCo2BiO6,-1.1903,0.0,0.0,0.1486,,,,,
JVASP-102171,U2As3Se,-0.84046,0.0,na,0.0008,,,,,
JVASP-101706,Li2MgZn,-0.20156,0.0,0.0,0.0,,,,,
JVASP-1441,ScNiSb,-0.92287,0.263,0.293,0.0,,,,,
JVASP-101499,K2InBiF6,-2.47003,2.032,na,0.1294,,,,,
JVASP-99603,Ta2MoIr,-0.39337,0.0,0.0,0.0141,,,,,
JVASP-100796,TbNiGe,-0.72898,0.0,0.0,0.0986,,,,,
JVASP-96980,Ca3Mn2O7,-2.61981,0.0,na,0.0391,,,,,
JVASP-101547,Cd2AgPt,-0.21384,0.0,na,0.0,,,,,
JVASP-101168,LiV3O6,-2.45195,0.0,na,0.1019,,,,,
JVASP-100753,Sc2CoCu,-0.37407,0.0,na,0.0098,,,,,
JVASP-100660,CuNiO2,-0.68676,0.0,na,0.1443,,,,,
JVASP-103059,PrCu4Pd,-0.30702,0.0,na,0.0,,,,,
JVASP-99418,BaCd3,-0.30707,0.0,na,0.0,,,,,
JVASP-18715,HfNi2,-0.49253,0.0,0.0,0.0733,,,,,
JVASP-100384,HoCuGe,-0.65303,0.0,na,0.0718,,,,,
JVASP-100156,CdSn,0.07433,0.0,na,0.0793,,,,,
JVASP-100199,LiAg3,-0.15614,0.0,na,0.0215,,,,,
JVASP-100040,AlNi2As,-0.37597,0.0,na,0.0849,,,,,
JVASP-99892,ZrTiB4,-1.01093,0.0,na,0.0175,,,,,
JVASP-101061,CuSnPd2,-0.34003,0.0,0.0,0.0289,,,,,
JVASP-100344,SrGaGe,-0.57307,0.0,na,0.0664,,,,,
JVASP-101610,TaTi3,0.08475,0.0,na,0.0848,,,,,
JVASP-14948,YbHg,-0.59974,0.0,na,0.0073,,,,,
JVASP-99992,FeAgTe2,0.07059,0.0,0.0,0.2014,,,,,
JVASP-101226,Be4AlFe,-0.24049,0.0,0.0,0.0,,,,,
JVASP-103231,Be2NiRu,-0.33434,0.0,na,0.0343,,,,,
JVASP-100252,VAu3,0.05401,0.0,na,0.0706,,,,,
JVASP-99693,K2NaTlBr6,-1.20912,0.823,na,0.0929,,,,,
JVASP-101418,ZnGaCo2,-0.16435,0.0,na,0.0,,,,,
JVASP-102345,CeCuSi2Pd,-0.7124,0.0,na,0.0,,,,,
JVASP-101472,MgCdTe2,-0.67809,1.479,na,0.0135,,,,,
JVASP-100114,Rb2AgAsBr6,-1.02046,0.703,na,0.0,,,,,
JVASP-20082,TaB2,-0.59576,0.0,0.0,0.0,,,,,
JVASP-102223,CdSnAs2,0.00066,0.0,na,0.1047,,,,,
JVASP-99934,Sm2ZnSb4,-0.72214,0.0,na,0.0,,,,,
JVASP-20107,MgSc,-0.0316,0.0,0.0,0.0016,,,,,
JVASP-19847,TmTl3,-0.17032,0.0,na,0.0,,,,,
JVASP-100882,K2TlSbBr6,-1.10253,0.971,na,0.0714,,,,,
JVASP-101758,SrPb2N2,-0.28457,0.313,0.793,0.1223,,,,,
JVASP-99369,Rb3AuBr6,-1.04341,0.0,na,0.1718,,,,,
JVASP-100700,LiLaSO,-2.68525,3.278,na,0.0154,,,,,
JVASP-3531,Na4I2O,-1.40785,2.488,3.706,0.0038,,,,,
JVASP-100299,TbBiPd,-0.95328,0.0,0.078,0.0,,,,,
JVASP-51192,CaRe2Si,0.76074,0.0,na,1.063,,,,,
JVASP-102113,Hf2FeRh,-0.60223,0.0,na,0.0,,,,,
JVASP-100617,Sc3Sn,-0.45884,0.0,0.0,0.0095,,,,,
JVASP-102981,Sc3V,0.17845,0.0,na,0.1785,,,,,
JVASP-99645,Ba2UCrO6,-3.11721,0.75,na,0.0,,,,,
JVASP-101790,H4C9S3O,0.11416,1.376,na,0.3255,,,,,
JVASP-106224,K2TiCuF6,-2.82153,0.0,0.519,0.2678,,,,,
JVASP-15758,Na2LiN,-0.09356,0.0,0.88,0.1648,,,,,
JVASP-16061,SrSnP,-0.84909,0.0,0.0,0.0,,,,,
JVASP-100503,Sc2GaPd,-0.76789,0.0,0.0,0.013,,,,,
JVASP-100201,LuNpRu2,-0.42726,0.0,na,0.0,,,,,
JVASP-103135,Ta2O5,-3.01514,2.217,na,0.0282,,,,,
JVASP-101936,ZrH6C5O4,-0.77712,2.075,na,0.3246,,,,,
JVASP-96981,CoAgO2,-0.91948,0.346,na,0.0011,,,,,
JVASP-103321,ThBi3,-0.3515,0.0,na,0.0778,,,,,
JVASP-100157,CeHoZn2,-0.29234,0.0,na,0.0323,,,,,
JVASP-3975,RbLiBr2,-1.76659,4.527,na,0.0161,,,,,
JVASP-100797,Tb3SmNi4,-0.49988,0.0,na,0.0,,,,,
JVASP-15504,ErSi2Ru2,-0.83999,0.0,na,0.0,,,,,
JVASP-101831,H4C2SN2,-0.05343,2.972,na,0.1255,,,,,
JVASP-100345,SrFeO2F,-2.50028,0.0,na,0.1265,,,,,
JVASP-102290,ScAu3,-0.64482,0.0,0.0,0.0493,,,,,
JVASP-100661,CrAgP2Se6,-0.2082,0.572,na,0.0,,,,,
JVASP-19894,YRh2,-0.78609,0.0,na,0.0,,,,,
JVASP-101419,ZrScRu2,-0.70404,0.0,na,0.0,,,,,
JVASP-17904,YSb,-1.23708,0.0,0.0,0.0,,,,,
JVASP-101500,K2AlAuF6,-2.77994,1.221,3.123,0.1432,,,,,
JVASP-101169,Li2MgZrO4,-2.98927,3.152,4.018,0.0173,,,,,
JVASP-22685,CdTe,-0.40425,0.526,1.757,0.0048,,,,,
JVASP-1471,CrAgS2,-0.52622,0.728,na,0.0088,,,,,
JVASP-100560,Hf4AlSi,-0.47706,0.0,na,0.0133,,,,,
JVASP-50960,LiBi3Cl2O4,-1.53521,2.812,na,0.0077,,,,,
JVASP-1639,CdHgO2,-0.71377,0.463,1.617,0.0,,,,,
JVASP-22568,KIO3,-1.0556,2.731,4.356,0.0138,,,,,
JVASP-2760,BaCd2P2,-0.64265,0.58,1.364,0.0,,,,,
JVASP-16233,Nb2AsC,-0.6357,0.0,na,0.0,,,,,
JVASP-102346,CaMnS2,-1.12209,0.0,na,0.3283,,,,,
JVASP-100841,ErAgSn2,-0.41329,0.0,0.0,0.0183,,,,,
JVASP-13893,ZrNiP,-0.63976,0.0,0.0,0.4913,,,,,
JVASP-103710,HoCdIn,-0.39012,0.0,0.0,0.0018,,,,,
JVASP-42162,Mn6O5F7,-2.15185,0.0,na,0.0,,,,,
JVASP-100041,AlCuPd2,-0.59188,0.0,na,0.0227,,,,,
JVASP-101548,Ca2InHg,-0.5428,0.0,0.0,0.0,,,,,
JVASP-100116,Rb2EuAgCl6,-1.88734,3.606,na,0.1479,,,,,
JVASP-101759,CaAgN,-0.30587,0.0,na,0.3007,,,,,
JVASP-14949,NpC,-0.13962,0.0,0.0,0.0239,,,,,
JVASP-19879,Cr3B4,-0.42423,0.0,0.0,0.0133,,,,,
JVASP-100618,Sr2LiRh,-0.15974,0.0,na,0.0173,,,,,
JVASP-103656,DyP2Pd2,-0.90474,0.0,0.0,0.04,,,,,
JVASP-100754,Sc2CoRh,-0.74296,0.0,0.0,0.0123,,,,,
JVASP-101005,NaZn3,-0.00459,0.0,0.0,0.047,,,,,
JVASP-2997,SrMg2Sb2,-0.83997,1.068,1.435,0.0,,,,,
JVASP-101707,Li2GaSi,-0.13474,0.0,na,0.1341,,,,,
JVASP-101658,MgCuPb,-0.06998,0.0,0.0,0.0403,,,,,
JVASP-102114,LiMgPb2,-0.19375,0.0,na,0.0009,,,,,
JVASP-100300,Cu3RhN,0.29892,0.0,na,0.302,,,,,
JVASP-103233,TbCa3,0.11814,0.0,na,0.1307,,,,,
JVASP-101114,Sr2Zn5Si3,-0.35777,0.0,0.0,0.0,,,,,
JVASP-18449,Ce2SeF4,-3.67891,0.0,0.0,0.0,,,,,
JVASP-103412,Ti4O3,-2.34205,0.0,0.0,0.0588,,,,,
JVASP-100884,Li3ScF6,-3.31527,6.108,8.17,0.2462,,,,,
JVASP-101832,H5C5SNO,0.05491,3.11,na,0.3804,,,,,
JVASP-100158,Ce3Cd,-0.03092,0.0,na,0.0747,,,,,
JVASP-99646,Sr2UCrO6,-3.10826,0.943,na,0.0,,,,,
JVASP-99935,Sm2Ga3Cu,-0.6011,0.0,na,0.0086,,,,,
JVASP-106225,Rb3LuCl6,-2.17743,4.792,na,0.0,,,,,
JVASP-103790,H8C9O,-0.09487,2.72,na,0.1603,,,,,
JVASP-49801,HoBO3,-3.32323,5.511,7.194,0.0,,,,,
JVASP-103851,H6C7N2O,-0.15135,2.529,na,0.1428,,,,,
JVASP-102907,SrCeN2,-1.36429,0.82,na,0.0413,,,,,
JVASP-99469,Nd2ZnIn,-0.422,0.0,0.0,0.02,,,,,
JVASP-100440,LiO8,-0.34588,0.0,na,0.0245,,,,,
JVASP-101473,MgAl2Sb2,-0.03138,0.0,0.0,0.2419,,,,,
JVASP-99604,Rb3In,0.01131,0.0,0.0,0.1119,,,,,
JVASP-16160,NdMnSi2,-0.55701,0.0,na,0.0,,,,,
JVASP-15283,HoSi2Rh2,-1.0565,0.0,0.0,0.0,,,,,
JVASP-14894,Ni3C,0.05484,0.0,na,0.0556,,,,,
JVASP-103912,ZnH6C5O4,-0.63339,4.499,na,0.1267,,,,,
JVASP-101937,ZrH8C6O4,-0.70938,2.094,na,0.2462,,,,,
JVASP-101893,CaH2C3O4,-1.36187,4.474,na,0.1425,,,,,
JVASP-99561,Cu3As,0.081,0.0,na,0.081,,,,,
JVASP-100346,Sr2CuO2F2,-2.60929,0.0,0.0,0.2865,,,,,
JVASP-100385,Hf2AlSi,-0.58362,0.0,na,0.0368,,,,,
JVASP-103607,HoBi3,-0.30836,0.0,na,0.1355,,,,,
JVASP-103972,CdH10C7O4,-0.46374,3.799,na,0.1047,,,,,
JVASP-100662,CrNi3Sb4,-0.13081,0.0,na,0.057,,,,,
JVASP-102291,Sr2TlZn,-0.41197,0.0,0.0,0.0,,,,,
JVASP-102172,UGeAu,-0.27942,0.0,na,0.0288,,,,,
JVASP-14597,Mg,0.03228,0.0,0.0,0.0,,,,,
JVASP-14342,Te2AuCl,-0.27011,0.0,na,0.0,,,,,
JVASP-18752,Nb5Te4,-0.33102,0.0,na,0.0081,,,,,
JVASP-18798,SmGa2Pd2,-0.76565,0.0,na,0.0079,,,,,
JVASP-101507,Rb2HgAsCl6,-1.17128,0.0,na,0.0238,,,,,
JVASP-49748,Li8TiS6,-1.44564,1.017,1.212,0.0573,,,,,
JVASP-14748,MgPd,-0.7618,0.0,0.0,0.0,,,,,
JVASP-100950,AlCu3,-0.1892,0.0,na,0.0,,,,,