jid,formula,formation_energy_per_atom,optb88vdw_bandgap,mbj_bandgap,ehull,spacegroup_number,natoms,volume,bulk_modulus_kv,shear_modulus_gv
JVASP-88234,EuH3O3,-2.04357,3.773,6.121,0.0,,,,,
JVASP-66213,BaNaV,1.22756,0.0,0.0,1.2633,,,,,
JVASP-66137,Ba4VW,1.7305,0.0,na,1.8233,,,,,
JVASP-66530,Ba4PPt,0.37825,0.0,na,1.1268,,,,,
JVASP-86174,Be12Nb,-0.14363,0.0,na,0.0,,,,,
JVASP-91720,Mg3Cd,-0.05837,0.0,na,0.0221,,,,,
JVASP-65796,BaNa2Sb,-0.39322,0.0,na,0.241,,,,,
JVASP-69285,Ba2LiTe,-0.69816,0.0,0.0,0.2706,,,,,
JVASP-66254,Ba4FeP,0.98785,0.0,na,1.449,,,,,
JVASP-69086,BaTlPb2,-0.2692,0.0,na,0.1362,,,,,
JVASP-69251,Ba2MnPb,0.03088,0.0,na,0.488,,,,,
JVASP-66456,Ba4MnNb,1.62495,0.0,0.0,1.6616,,,,,
JVASP-66296,BaPbCl,-0.68938,0.172,na,0.919,,,,,
JVASP-87851,LuCuSn,-0.57802,0.0,na,0.0,,,,,
JVASP-85489,BaSb2,-0.78595,0.0,na,0.0,,,,,
JVASP-63716,As2O5,-1.10387,1.561,na,0.0005,,,,,
JVASP-66419,Ba4LiIr,0.81404,0.0,0.0,0.9137,,,,,
JVASP-63846,Nb5Ge3B,-0.5279,0.0,na,0.0154,,,,,
JVASP-66170,BaYTe,0.10401,0.0,0.0,1.3757,,,,,
JVASP-90735,UNiC2,-0.18257,0.0,na,0.0513,,,,,
JVASP-90561,YMg,1.16286,0.0,na,1.2676,,,,,
JVASP-48947,WO2F,-2.41776,0.0,na,0.049,,,,,
JVASP-88651,Bi2TeO5,-1.32802,2.257,na,0.0,,,,,
JVASP-18829,NdSi2Ag2,-0.40323,0.0,0.0,0.0,,,,,
JVASP-69371,BaGeCl2,-1.2306,0.0,0.0,0.7914,,,,,
JVASP-66332,Ba4SnRh,0.51129,0.0,0.0,0.8927,,,,,
JVASP-69211,KBaBi2,-0.59852,0.0,na,0.0928,,,,,
JVASP-65749,BaSn2Sb,-0.36284,0.0,na,0.1852,,,,,
JVASP-66576,Ba4TaGe,1.02026,0.0,na,1.3103,,,,,
JVASP-65566,BaLiCa2,0.02862,0.0,0.0,0.0534,,,,,
JVASP-28369,PbS,-0.59926,1.2,1.873,0.0567,,,,,
JVASP-86875,Tb2InGe2,-0.72358,0.0,na,0.0149,,,,,
JVASP-89927,ThGaNi,-0.65141,0.0,na,0.0,,,,,
JVASP-63561,DyB6,-0.41596,0.0,na,0.0456,,,,,
JVASP-66103,Ba4SiIr,0.85479,0.0,na,1.1855,,,,,
JVASP-61588,Y3Sc2Al3O12,-3.69287,4.461,na,0.0,,,,,
JVASP-69125,Ba2CdBr,-0.83631,0.0,0.0,0.2627,,,,,
JVASP-48879,LiVTe3O12,-1.32803,1.51,1.751,0.0349,,,,,
JVASP-66214,BaSnBi,-0.14943,0.0,na,0.5383,,,,,
JVASP-68969,BaRuCl2,-0.57223,0.0,na,1.4497,,,,,
JVASP-65293,BeFeCl4,1.11071,0.0,0.0,2.232,,,,,
JVASP-69286,Ba2InSb,-0.69313,0.0,na,0.2057,,,,,
JVASP-66255,BaNaTe,-0.74861,0.0,na,0.5271,,,,,
JVASP-66138,BaMoSe,0.83524,0.0,na,2.2965,,,,,
JVASP-86465,LaNi4B,-0.43932,0.0,na,0.0,,,,,
JVASP-66531,BaYCd,0.55374,0.0,na,0.8415,,,,,
JVASP-66457,Ba4ScOs,1.24307,0.0,na,1.3945,,,,,
JVASP-87957,Tl4HgI6,-0.55253,0.95,na,0.0,,,,,
JVASP-66058,Ba4CdTc,1.04009,0.0,0.0,1.184,,,,,
JVASP-66493,Ba4YCo,1.02542,0.0,na,1.1201,,,,,
JVASP-66378,BaNaTa,1.82092,0.0,0.0,1.8566,,,,,
JVASP-90403,As2PdO6,-0.99242,0.172,na,0.0001,,,,,
JVASP-86067,ZrAlPt,-1.08156,0.0,na,0.0153,,,,,
JVASP-66421,Ba4BeRh,1.03709,0.0,na,1.2368,,,,,
JVASP-63720,CeInAu2,-0.67413,0.0,na,0.0,,,,,
JVASP-50709,LiCuPO4,-1.85756,0.0,na,0.0725,,,,,
JVASP-98682,AlPt2,-0.87227,0.0,0.0,0.0075,,,,,
JVASP-53086,Al4CO,-0.60455,0.0,na,0.4107,,,,,
JVASP-86404,BAsO4,-1.73729,4.46,6.005,0.0033,,,,,
JVASP-90832,UCu2Sn,0.18385,0.0,na,0.2314,,,,,
JVASP-91539,YClO2,-2.00402,0.0,0.0,0.4887,,,,,
JVASP-90604,Mg3Al,-0.00655,0.0,na,0.0229,,,,,
JVASP-97990,Sr4GeP4,-1.09892,1.004,na,0.0,,,,,
JVASP-97339,Dy2SiSeO4,-3.20743,2.677,3.768,0.0,,,,,
JVASP-50937,Rb3HoO3,-2.13602,2.157,na,0.0745,,,,,
JVASP-50812,BaCaI4,-1.73906,3.2,4.052,0.0699,,,,,
JVASP-91655,Hf2PbC,-0.66354,0.0,na,0.0,,,,,
JVASP-91701,FeNi3,-0.06553,0.0,na,0.0233,,,,,
JVASP-64192,Ba4ZrGa,0.73242,0.0,0.0,0.9397,,,,,
JVASP-14107,CuBr2,-0.32759,0.0,0.0,0.0,,,,,
JVASP-64096,Ba4LiW,1.25578,0.0,0.0,1.3586,,,,,
JVASP-90628,N3Cl,0.75511,2.199,3.112,0.7667,,,,,
JVASP-29106,Te4Mo3WSe2S2,-0.42012,0.337,na,0.1292,,,,,
JVASP-98559,K2NiH12C4O14,-1.18419,1.762,na,0.03,,,,,
JVASP-1999,RbCl,-2.07202,5.075,7.876,0.019,,,,,
JVASP-64794,Ba4LiCr,0.77241,0.0,0.0,0.7824,,,,,
JVASP-64190,Ba4CoTe,0.51265,0.0,0.0,1.1504,,,,,
JVASP-38341,RbAgO3,-0.25865,0.0,na,0.4322,,,,,
JVASP-64673,Ba4TiCo,1.277,0.0,na,1.4156,,,,,
JVASP-4594,YbLiO2,-2.38808,0.0,na,0.2315,,,,,
JVASP-87104,NaLiTe,-1.07556,2.526,3.45,0.028,,,,,
JVASP-85923,BaB2F8,-3.35651,8.457,10.257,0.0003,,,,,
JVASP-21521,Na6Sn2S7,-1.01144,2.023,3.486,0.0037,,,,,
JVASP-37178,MnSn,0.20065,0.0,na,0.2006,,,,,
JVASP-49896,NaTi2O3,-2.65884,0.002,na,0.0405,,,,,
JVASP-37193,Mn2CuSb,0.36168,0.0,0.0,0.3617,,,,,
JVASP-64381,Ba4SnHg,0.17673,0.0,na,0.6912,,,,,
JVASP-64440,Ba4BiPb,-0.02054,0.0,na,0.7186,,,,,
JVASP-64248,Ba4ScGa,0.55472,0.0,0.0,0.7627,,,,,
JVASP-87042,KN3,-0.22303,4.393,5.475,0.0,,,,,
JVASP-97856,BH11C4BrNF4,-0.80523,4.959,na,0.0964,,,,,
JVASP-64868,Ba4InSn,0.14722,0.0,na,0.6935,,,,,
JVASP-107777,MgScSe3,-1.28934,0.0,na,0.1607,,,,,
JVASP-39408,LiFePd2,-0.22963,0.0,0.0,0.0425,,,,,
JVASP-97924,Rb2Cd2S3O12,-1.65087,3.903,na,0.0,,,,,
JVASP-88369,Li3AuO3,-1.55898,2.017,na,0.0001,,,,,
JVASP-64988,Hf4TiBe,0.72122,0.0,na,0.7814,,,,,
JVASP-86503,LaAlO3,-3.61329,3.496,na,0.0224,,,,,
JVASP-3747,CrClO,-1.67046,0.496,na,0.0117,,,,,
JVASP-1357,SrTe,-1.85517,1.772,2.31,0.0,,,,,
JVASP-38330,RbBO3,-0.42488,0.0,0.0,1.3996,,,,,
JVASP-37043,Ti3Ga,-0.17793,0.0,0.0,0.1348,,,,,
JVASP-97681,Ba2NbN3,-1.18528,1.945,na,0.0,,,,,
JVASP-64949,ZrBeNi4,-0.30614,0.0,na,0.1911,,,,,
JVASP-86371,AlCu,-0.22357,0.0,na,0.0,,,,,
JVASP-98724,SrAl2O4,-3.33711,4.247,na,0.0,,,,,
JVASP-86848,AlAu2,-0.33512,0.0,na,0.0,,,,,
JVASP-16044,MnB,-0.42559,0.0,0.0,0.0,,,,,
JVASP-97627,SrTaF7,-3.70763,5.479,na,0.0,,,,,
JVASP-91523,Tl2SiHgSe4,-0.3522,1.093,1.609,0.0023,,,,,
JVASP-63960,Ba4FeSb,0.76274,0.0,na,1.2438,,,,,
JVASP-14576,PrS,-2.16704,0.0,na,0.0,,,,,
JVASP-19924,U2N3,-1.58919,0.031,0.0,0.0,,,,,
JVASP-3261,Er2SeO2,-3.34343,2.327,3.646,0.0,,,,,
JVASP-97578,KMoPO6,-2.29354,2.747,na,0.0,,,,,
JVASP-43428,Ti3NbO8,-2.99956,0.0,na,0.1031,,,,,
JVASP-98297,KSbMo2O8,-2.08541,2.385,na,0.0,,,,,
JVASP-64318,Ba4LaNb,1.01032,0.0,na,1.0103,,,,,
JVASP-38302,RbNaO3,-0.29082,0.0,0.0,0.8149,,,,,
JVASP-14073,Mn5As4,-0.10933,0.0,na,0.0735,,,,,
JVASP-12106,VCuO4,-1.59764,0.133,0.107,0.0676,,,,,
JVASP-47965,Fe2OF3,-1.87748,0.0,na,0.0622,,,,,
JVASP-63918,BaHfBr,0.66506,0.0,0.0,1.8425,,,,,
JVASP-64134,Ba4WCl,0.84143,0.0,0.0,1.6082,,,,,
JVASP-98228,Nb6Si7Ni16,-0.54014,0.0,na,0.0,,,,,
JVASP-5491,V2Se9,-0.38941,0.5,0.739,0.0065,,,,,
JVASP-1843,LiHoSe2,-1.78168,1.599,2.203,0.0,,,,,
JVASP-16933,TiAlO3,-2.19,0.0,na,1.033,,,,,
JVASP-107739,SrYCoO4,-2.67489,0.0,na,0.0321,,,,,
JVASP-98938,BaSiO3,-3.15168,4.617,na,0.0,,,,,
JVASP-64912,TaBeBr4,1.55303,0.0,na,2.5203,,,,,
JVASP-89038,LaMnO3,-2.8341,0.0,na,0.055,,,,,
JVASP-64009,Ba4GaP,0.38645,0.0,na,0.9846,,,,,
JVASP-86970,BaPuO3,-3.31772,0.0,na,0.0,,,,,
JVASP-98182,La3AlC,-0.30483,0.0,na,0.0,,,,,
JVASP-98093,Tb2Ge3Pt9,-0.79215,0.0,na,0.0116,,,,,
JVASP-48466,LiCo5O7F,-1.39287,0.306,na,0.0185,,,,,
JVASP-86101,CrFe2Se4,-0.25005,0.0,na,0.1452,,,,,
JVASP-50692,LiAgF2,-2.0561,1.452,na,0.0687,,,,,
JVASP-39279,FePbO3,-1.31423,0.0,0.0,0.0359,,,,,
JVASP-92196,Mg6FeNi,0.13745,0.0,na,0.2282,,,,,
JVASP-65104,MgBe2Se,0.16916,0.0,na,0.8489,,,,,
JVASP-14616,Li,0.00249,0.0,na,0.0,,,,,
JVASP-90535,Ba2Sc2O5,-3.3651,1.883,na,0.0151,,,,,
JVASP-86731,YCrO4,-2.82807,0.0,na,0.01,,,,,
JVASP-37144,NbFe3,-0.05766,0.0,0.0,0.0737,,,,,
JVASP-85853,Ho3Ge4,-0.79456,0.0,na,0.0,,,,,
JVASP-64049,Ba4FeBr,0.71643,0.0,0.0,1.3058,,,,,
JVASP-577,NbS2,-1.08445,0.0,0.0,0.0384,,,,,
JVASP-64531,Ba4CaP,0.36662,0.0,na,0.8323,,,,,
JVASP-3102,K2CN2,-0.61732,3.636,5.904,0.0,,,,,
JVASP-49777,Zr3N4,-1.71924,1.124,1.495,0.0238,,,,,
JVASP-97746,H8PtO6,-0.88697,1.735,na,0.0367,,,,,
JVASP-97433,TlMo3O9,-2.03953,0.747,na,0.0,,,,,
JVASP-19903,YAs,-1.64358,0.0,0.0,0.0,,,,,
JVASP-90813,Si,0.40263,0.0,na,0.0,,,,,
JVASP-65026,BeIr4W,0.42233,0.0,na,0.7603,,,,,
JVASP-12116,CuI2O6,-0.43524,0.524,na,0.0,,,,,
JVASP-37102,Sc2MnSn,-0.16631,0.0,0.0,0.347,,,,,
JVASP-53440,Li2MnCl4,-1.5733,1.702,na,0.0264,,,,,
JVASP-22699,BiOF,-1.97912,2.821,4.494,0.0074,,,,,
JVASP-15833,CoS2,-0.14855,0.0,0.0,0.3014,,,,,
JVASP-42403,Ba4PdO6,-2.29787,1.274,na,0.0,,,,,
JVASP-90116,Sr2CuAg2S2O2,-1.44531,0.0,na,0.1284,,,,,
JVASP-39452,RuAu3,0.36851,0.0,0.0,0.3685,,,,,
JVASP-85463,OsC3I2O3,-0.61377,1.866,na,0.0457,,,,,
JVASP-14831,Si,0.39502,0.0,0.0,0.0,,,,,
JVASP-43629,MgO,-2.8907,3.857,5.755,0.1438,,,,,
JVASP-11959,Al3Ni5,-0.57505,0.0,na,0.0,,,,,
JVASP-52890,KGaH4,-0.22689,5.097,7.11,0.0,,,,,
JVASP-65067,BeTcBi4,1.34147,0.0,na,1.3962,,,,,
JVASP-44256,Li3FeO4,-1.7852,0.0,0.0,0.0884,,,,,
JVASP-90230,HfSnIr,-0.69027,0.0,na,0.0,,,,,
JVASP-98358,Na3Cu2SbO6,-1.4341,0.12,na,0.0254,,,,,
JVASP-15812,YbRbO2,-2.19313,0.0,0.0,0.2171,,,,,
JVASP-90716,YbCoGe2,-0.57337,0.0,na,0.0051,,,,,
JVASP-90858,KCd4P3,-0.22203,0.0,na,0.0,,,,,
JVASP-53077,Yb3Ti3O14,-2.05918,0.0,na,0.6487,,,,,
JVASP-44070,Li3FeO2F2,-2.35361,0.082,na,0.1357,,,,,
JVASP-64728,Ba4ScCd,0.51398,0.0,0.0,0.6579,,,,,
JVASP-89096,NaSn2P3O12,-2.14167,3.287,na,0.0,,,,,
JVASP-85740,Y5CuPb3,-0.58085,0.0,na,0.0,,,,,
JVASP-88423,Pb2OF2,-2.0026,2.925,na,0.0015,,,,,
JVASP-63427,Tb3Sb4Au3,-0.83818,0.605,0.648,0.0,,,,,
JVASP-3291,TbOF,-4.12793,5.212,7.041,0.0,,,,,
JVASP-66532,BaSrZn,0.37876,0.0,na,0.5871,,,,,
JVASP-65568,Ba2ScSn,-0.08468,0.0,na,0.4294,,,,,
JVASP-65251,NaBeCo4,0.4265,0.0,na,0.5396,,,,,
JVASP-69213,Ba2LaV,0.70327,0.0,na,0.7033,,,,,
JVASP-63849,CeSi2Au2,-0.53956,0.0,na,0.0002,,,,,
JVASP-65715,BaTl2Br,-0.6165,0.0,na,0.445,,,,,
JVASP-66256,Ba4SbIr,0.47325,0.018,na,0.9537,,,,,
JVASP-66609,Ba4CrRe,1.5528,0.0,na,1.5528,,,,,
JVASP-66333,Ba4CrFe,1.40479,0.0,0.0,1.4054,,,,,
JVASP-61021,Li3AlB2O6,-2.69986,5.268,na,0.019,,,,,
JVASP-66104,Ba4TcHg,1.05234,0.0,na,1.2241,,,,,
JVASP-66577,Ba4GaTc,1.0896,0.0,0.0,1.2273,,,,,
JVASP-15038,ErCo5,-0.14642,0.0,0.0,0.026,,,,,
JVASP-66459,BaSbPb,-0.1794,0.0,na,0.5213,,,,,
JVASP-66059,Ba4FeIr,1.38844,0.0,na,1.3969,,,,,
JVASP-88927,K2Hg3Ge2S8,-0.53098,1.364,na,0.0015,,,,,
JVASP-86802,MgH2,-0.25795,2.921,4.541,0.0388,,,,,
JVASP-86240,URe2,-0.05695,0.0,na,0.0,,,,,
JVASP-62514,LaSc3B4O12,-3.26708,4.41,na,0.0,,,,,
JVASP-65679,Ba2LiV,0.81588,0.0,0.0,0.8309,,,,,
JVASP-66140,BaSeBr,-1.47785,0.0,0.0,0.4404,,,,,
JVASP-89386,CO,-0.36,6.022,na,0.6292,,,,,
JVASP-63072,ErSi2Au2,-0.4691,0.0,na,0.1021,,,,,
JVASP-69252,BaCuNi2,0.48176,0.0,na,0.5459,,,,,
JVASP-66215,Ba4GaFe,1.04065,0.0,0.0,1.1789,,,,,
JVASP-61798,GaAsO4,-1.52689,3.198,5.01,0.0,,,,,
JVASP-69287,BaTlSb2,-0.3567,0.0,na,0.2328,,,,,
JVASP-3879,Tl2SnCl6,-1.06573,2.148,3.22,0.0,,,,,
JVASP-42251,FeOF,-1.72319,0.0,0.0,0.1177,,,,,
JVASP-68970,BaCd2Se,-0.77835,0.0,na,0.3226,,,,,
JVASP-91966,LiCu2P,-0.29282,0.0,na,0.0519,,,,,
JVASP-61333,Sc6Al16Ni7,-0.6206,0.0,na,0.0415,,,,,
JVASP-65639,Ba2GeBi,-0.59926,0.0,0.0,0.2629,,,,,
JVASP-90017,CoCl2O6,0.10039,0.0,na,0.4613,,,,,
JVASP-69214,KBaMg2,0.04861,0.0,na,0.1428,,,,,
JVASP-65535,K2BaV,0.65139,0.0,0.0,0.6557,,,,,
JVASP-85951,Pr2Ta2Cl2O7,-3.18205,3.147,4.166,0.0,,,,,
JVASP-66422,Ba4GaIr,0.77595,0.0,0.0,0.9136,,,,,
JVASP-66533,Ba4TcSn,0.93379,0.0,na,1.2765,,,,,
JVASP-90275,LiDyGe,-0.75552,0.0,na,0.0,,,,,
JVASP-86756,Fe2B,0.07844,0.0,0.0,0.3628,,,,,
JVASP-90495,TbSi,-0.80451,0.0,na,0.0,,,,,
JVASP-1192,CdSe,-0.58943,0.455,1.84,0.0094,,,,,
JVASP-42333,Mn2OF3,-2.24995,0.0,0.0,0.0,,,,,
JVASP-66461,Ba4CoRh,1.17482,0.0,na,1.2154,,,,,
JVASP-66298,BaNaZr,1.29207,0.0,0.0,1.3278,,,,,
JVASP-65252,Mg4BePb,0.37324,0.0,na,0.4363,,,,,
JVASP-66060,BaYPb,0.36366,0.0,na,0.9505,,,,,
JVASP-62152,Ti6Al16Pd7,-0.63019,0.0,na,0.0229,,,,,
JVASP-63569,ErAu3,-0.78192,0.0,na,0.0,,,,,
JVASP-69009,BaCa2Y,0.09542,0.0,0.0,0.1056,,,,,
JVASP-65490,BaTaMn2,0.59004,0.0,0.0,0.7598,,,,,
JVASP-66578,BaCdSe,-0.95616,1.6,1.913,0.5084,,,,,
JVASP-69253,BaReBr2,0.18518,0.0,na,1.9514,,,,,
JVASP-62342,AlVO4,-2.8188,2.96,3.216,0.0,,,,,
JVASP-65413,BaSiNi2,0.43652,0.0,na,0.8149,,,,,
JVASP-63725,AsPdS,-0.39266,0.0,na,0.0,,,,,
JVASP-69328,BaPdRh2,0.28,0.0,na,0.5927,,,,,
JVASP-66105,Ba4HgMo,1.0082,0.0,0.0,1.18,,,,,
JVASP-66141,BaNbTe,0.78659,0.0,0.0,2.0583,,,,,
JVASP-90138,CrN2,0.06677,0.0,na,0.5316,,,,,
JVASP-69215,Ba2InPb,-0.53052,0.0,na,0.0771,,,,,
JVASP-65602,BaGaBr2,-1.23916,0.0,2.982,0.5271,,,,,
JVASP-63205,CaAs2O6,-1.87735,3.479,4.814,0.0,,,,,
JVASP-65536,Ba2VPb,0.18238,0.0,na,0.6395,,,,,
JVASP-62644,BaTiB2O6,-3.00807,2.375,na,0.0,,,,,
JVASP-91868,Mg7B,0.32996,0.0,na,0.3664,,,,,
JVASP-65750,Ba2TiCl,-0.11599,0.0,0.0,0.895,,,,,
JVASP-65681,BaGaBr2,-1.23926,0.0,na,0.527,,,,,
JVASP-66494,BaInBr,-0.62564,0.0,0.0,0.8319,,,,,
JVASP-69167,BaNiRh2,0.51615,0.0,na,0.632,,,,,
JVASP-66423,Ba4TiV,1.45864,0.0,0.0,1.4586,,,,,
JVASP-66379,BaTiBr,0.28595,0.169,na,1.4634,,,,,
JVASP-66061,Ba4PtW,1.20617,0.0,na,1.587,,,,,
JVASP-65797,BaSrTl2,-0.46549,0.0,na,0.0293,,,,,
JVASP-63432,HoNiB4,-0.59648,0.0,na,0.0058,,,,,
JVASP-66646,Ba4PSe,-0.03257,0.0,na,1.1586,,,,,
JVASP-66462,Ba4ReGe,1.22271,0.0,na,1.5127,,,,,
JVASP-69010,Ba2YV,0.73004,0.0,na,0.73,,,,,
JVASP-69126,Ba2ScBi,-0.13999,0.0,0.0,0.5116,,,,,
JVASP-61342,ZnGeAs2,-0.15207,0.079,1.073,0.0,,,,,
JVASP-86175,K2WCl6,-1.50164,0.0,na,0.0,,,,,
JVASP-18490,CuAuF5,-1.31363,0.0,0.0,0.0,,,,,
JVASP-63076,Yb4As3,-1.26716,0.0,na,0.0049,,,,,
JVASP-66299,Ba4TeIr,0.35655,0.0,0.0,0.9924,,,,,
JVASP-66534,Ba4YMo,1.2164,0.0,na,1.2164,,,,,
JVASP-62517,Dy5Si3B,-0.55744,0.0,na,0.1348,,,,,
JVASP-91678,SnPbS2,-0.04129,0.0,0.0,0.5665,,,,,
JVASP-63730,YbInAu2,-0.76654,0.0,na,0.0,,,,,
JVASP-66257,BaSrMo,1.56509,0.0,0.0,1.5895,,,,,
JVASP-66335,BaBiCl,-0.83738,0.0,0.0,0.8576,,,,,
JVASP-69047,BaLiNi2,0.35503,0.0,0.0,0.3886,,,,,
JVASP-69372,BaP2Pb,-0.2168,0.0,0.0,0.4716,,,,,
JVASP-66613,BaLiMg,0.40036,0.0,0.0,0.5132,,,,,
JVASP-66579,Ba4MoP,1.02182,0.0,0.0,1.4823,,,,,
JVASP-69254,BaHgSe2,-0.96328,0.795,na,0.1479,,,,,
JVASP-91814,PrFeAsO,-1.84147,0.0,na,0.0,,,,,
JVASP-91581,SmAu,-0.89757,0.0,0.0,0.0061,,,,,
JVASP-12167,ErClO,-3.24911,5.089,na,0.0,,,,,
JVASP-65491,BaTaPt2,-0.54411,0.0,na,0.1724,,,,,
JVASP-66106,BaInBi,-0.3024,0.291,0.377,0.363,,,,,
JVASP-69087,BaIrCl2,-0.50829,0.0,0.0,1.5137,,,,,
JVASP-61804,TbB2Ru,-0.58601,0.0,na,0.0,,,,,
JVASP-66064,BaTaTe,1.13179,0.0,na,2.4035,,,,,
JVASP-88052,LaZnAsO,-2.00524,0.576,na,0.0,,,,,
JVASP-65751,Ba2GePb,-0.46882,0.0,na,0.19,,,,,
JVASP-69216,Ba2YSe,-0.21786,0.0,na,0.8781,,,,,
JVASP-65603,K2BaBi,-0.21775,0.0,na,0.3597,,,,,
JVASP-66380,Ba4FeRe,1.83296,0.0,na,1.8491,,,,,
JVASP-90065,PrMgPd,-0.67315,0.0,na,0.0,,,,,
JVASP-62345,As2PbO6,-1.34689,2.27,3.161,0.0,,,,,
JVASP-86527,TiTlPS5,-0.78408,1.035,na,0.0,,,,,
JVASP-66495,Ba4PbW,0.96414,0.0,na,1.3617,,,,,
JVASP-66580,BaHgBr,-0.94778,0.0,na,0.4214,,,,,
JVASP-66216,BaHgPb,-0.01451,0.0,0.0,0.4533,,,,,
JVASP-87072,PF5,-2.57302,7.356,9.831,0.0,,,,,
JVASP-65799,BaCdSb2,-0.38892,0.0,na,0.2732,,,,,
JVASP-90736,O,0.07612,1.549,na,0.0,,,,,
JVASP-65682,KBaSe2,-1.44642,0.0,na,0.1714,,,,,
JVASP-66424,Ba4TiRh,1.05614,0.0,0.0,1.3063,,,,,
JVASP-28450,TmTe3,-0.55388,0.0,na,0.3344,,,,,
JVASP-66647,Ba4NbRu,1.46818,0.0,0.0,1.5251,,,,,
JVASP-69127,BaNa2Cd,-0.04972,0.0,na,0.1722,,,,,
JVASP-90404,TlFeSe2,-0.29654,0.0,na,0.0574,,,,,
JVASP-65569,BaMn2Cl,0.1065,0.0,0.0,1.1175,,,,,
JVASP-66336,Ba4TaPt,1.13504,0.0,na,1.4231,,,,,
JVASP-66172,Ba4InTc,0.99569,0.0,0.0,1.1992,,,,,
JVASP-61027,Al5BO9,-3.19087,5.015,na,0.004,,,,,
JVASP-19886,RhSe,-0.21303,0.0,na,0.1205,,,,,
JVASP-69049,BaMoSe4,0.31483,0.0,na,1.3914,,,,,
JVASP-86700,NbSe2,-0.85767,0.0,na,0.0098,,,,,
JVASP-66463,BaCrTe,0.13859,0.0,0.0,1.4103,,,,,
JVASP-86297,HgC2Se2N2,0.43883,2.006,2.998,0.448,,,,,
JVASP-63576,Na3As,-0.49169,0.201,na,0.0,,,,,
JVASP-88753,TlFeBr3,-0.61695,0.0,na,0.0,,,,,
JVASP-87853,TbP12Ru4,-0.63289,0.0,na,0.0366,,,,,
JVASP-87310,Ca2B5H2ClO10,-2.53911,5.557,na,0.0,,,,,
JVASP-61613,Sr5Sn2As6,-0.97821,0.087,na,0.0,,,,,
JVASP-63851,Ti6Al16Rh7,-0.74492,0.0,na,0.0075,,,,,
JVASP-65716,BaCd2Sb,-0.30585,0.0,na,0.2575,,,,,
JVASP-66381,BaZnPb,0.10286,0.0,na,0.6083,,,,,
JVASP-69011,BaRe2Ge,1.40764,0.0,na,1.7428,,,,,
JVASP-69088,BaCoHg4,0.3427,0.0,na,0.5407,,,,,
JVASP-42871,Ho2ZnOs,-0.40631,0.0,na,0.0,,,,,
JVASP-66258,Ba4ZnMo,1.21376,0.0,0.0,1.316,,,,,
JVASP-89928,CuI4N4,1.26071,0.0,na,1.3015,,,,,
JVASP-63287,CaB2H8,-0.39042,5.101,6.721,0.0,,,,,
JVASP-66065,Ba4TeRu,0.5432,0.0,na,1.179,,,,,
JVASP-63208,LuMn4Al8,-0.33891,0.0,0.0,0.0,,,,,
JVASP-90659,Mn3Ge,0.01911,0.0,na,0.0653,,,,,
JVASP-90833,PrPOsO,-1.91749,0.0,na,0.0,,,,,
JVASP-63436,DySnAu,-0.72668,0.0,na,0.1051,,,,,
JVASP-15308,CaNi2P2,-0.88399,0.0,na,0.0,,,,,
JVASP-66217,Ba4MnHg,1.05787,0.0,na,1.2296,,,,,
JVASP-52785,MnSnO3,-1.61202,0.0,na,0.0984,,,,,
JVASP-63078,YSnAu,-0.76069,0.0,na,0.0998,,,,,
JVASP-91769,EuGe3,-0.3847,0.0,na,0.0631,,,,,
JVASP-69168,BaTlSb2,-0.3567,0.0,na,0.2328,,,,,
JVASP-91630,SrZnSbF,-1.88983,0.0,0.709,0.0,,,,,
JVASP-85405,Eu3As4,-1.16129,0.0,na,0.0,,,,,
JVASP-90562,Mg3Ti,0.16043,0.0,na,0.1604,,,,,
JVASP-87958,Rb6Si10O23,-2.74957,4.628,na,0.0017,,,,,
JVASP-69288,BaCaBr2,-1.57027,0.0,0.0,0.2002,,,,,
JVASP-90605,Mg3Al,-0.014,0.0,na,0.0155,,,,,
JVASP-86934,NaLaTiO4,-3.21388,2.469,3.385,0.0013,,,,,
JVASP-66340,Ba4CdRe,1.17987,0.0,na,1.3238,,,,,
JVASP-91919,CeMg,0.70034,0.0,na,0.7279,,,,,
JVASP-86876,Al6Fe,-0.21298,0.0,na,0.0,,,,,
JVASP-66425,Ba4TlW,1.13008,0.0,na,1.3877,,,,,
JVASP-66142,BaCaCd,0.2897,0.0,0.0,0.5831,,,,,
JVASP-69129,Ba2TlHg,-0.4786,0.0,na,0.0262,,,,,
JVASP-86071,Dy5BiAu2,-0.33952,0.0,na,0.396,,,,,
JVASP-92172,H3W,0.10026,0.0,0.0,0.2405,,,,,
JVASP-66649,Ba4NiSb,0.4202,0.0,na,0.9007,,,,,
JVASP-69051,Ba2ZnBi,-0.64595,0.0,na,0.0953,,,,,
JVASP-85491,KEuCu2Te4,-0.66532,0.0,na,0.0,,,,,
JVASP-66497,Ba4TcIr,1.38429,0.0,0.0,1.4613,,,,,
JVASP-61347,ErAsPt,-1.20419,0.0,na,0.0393,,,,,
JVASP-19843,BaPt5,-0.53095,0.0,na,0.0,,,,,
JVASP-65800,BaNa2Ge,0.01278,0.0,na,0.354,,,,,
JVASP-90881,DyAu3,-0.78191,0.0,na,0.0,,,,,
JVASP-90196,NdCr2B6,-0.53056,0.0,na,0.009,,,,,
JVASP-69218,BaZrBi2,-0.25631,0.0,0.0,0.411,,,,,
JVASP-65683,BaNa2Hg,-0.07716,0.0,na,0.1866,,,,,
JVASP-66173,Ba4NbP,0.9071,0.0,na,1.3676,,,,,
JVASP-15263,ZrAlCu2,-0.37301,0.0,na,0.0,,,,,
JVASP-69012,BaSrMg2,-0.1011,0.0,na,0.0373,,,,,
JVASP-86405,CeSi2Pt,-0.92633,0.0,na,0.0,,,,,
JVASP-90788,MgTi,0.12289,0.0,na,0.1229,,,,,
JVASP-92222,TiOF2,-3.28956,1.859,2.246,0.1157,,,,,
JVASP-86635,LaN,-1.48144,1.465,2.313,0.0913,,,,,
JVASP-66066,Ba4ZnW,1.26638,0.0,na,1.4614,,,,,
JVASP-66464,Ba4OsSe,0.72261,0.0,0.065,1.4533,,,,,
JVASP-91721,SiBr3,-0.71789,3.946,5.117,0.0236,,,,,
JVASP-66218,Ba4TiIr,1.14055,0.0,na,1.4378,,,,,
JVASP-69289,Ba2BiSb,-0.86867,0.0,na,0.1495,,,,,
JVASP-61805,NaZn4As3,-0.27079,0.0,na,0.0,,,,,
JVASP-66259,BaCaPb,-0.03042,0.0,0.21,0.6664,,,,,
JVASP-61617,Mn3Au,0.26113,0.0,na,0.2817,,,,,
JVASP-66498,BaMnPb,0.75743,0.0,na,1.189,,,,,
JVASP-69089,BaSnSb2,-0.36943,0.0,na,0.22,,,,,
JVASP-63731,LiB11,0.71232,0.0,na,0.8036,,,,,
JVASP-69329,Ba2BiBr,-1.48342,0.939,1.287,0.0201,,,,,
JVASP-66300,BaTlTe,-0.63328,0.0,1.914,0.6384,,,,,
JVASP-48178,Fe4OF7,-1.96071,0.0,na,0.0229,,,,,
JVASP-63288,NdSnAu,-0.85443,0.0,0.0,0.0,,,,,
JVASP-65537,Ba2NbTl,0.49163,0.0,0.0,0.7388,,,,,
JVASP-66427,Ba4RuSe,0.60306,0.0,na,1.3337,,,,,
JVASP-66342,BaNbBr,0.71522,0.0,0.0,1.8927,,,,,
JVASP-69052,BaMnSe4,-0.03221,0.0,na,0.9396,,,,,
JVASP-66143,Ba4FeRh,1.31451,0.0,na,1.3537,,,,,
JVASP-88237,TeHO3,-0.99262,2.341,na,0.0216,,,,,
JVASP-66614,BaNaBi,-0.38821,0.318,1.124,0.4761,,,,,
JVASP-66261,BaVCd,1.0466,0.0,na,1.3344,,,,,
JVASP-42836,LiVCrO4,-2.2994,0.0,na,0.0958,,,,,
JVASP-66536,Ba2PdBr,-1.06579,0.0,0.859,0.1498,,,,,
JVASP-86243,NaLi5N2,-0.39393,0.683,na,0.1013,,,,,
JVASP-91969,NaCeS2,-1.87553,0.0,na,0.0,,,,,
JVASP-88928,SiSbPt,-0.44375,0.07,na,0.0,,,,,
JVASP-87002,CeNbO4,-3.22421,0.0,0.0,0.0105,,,,,
JVASP-86121,LiBH2,0.1788,0.543,0.677,0.5625,,,,,
JVASP-63577,KNiAu3C6N6,0.18727,1.339,na,0.2853,,,,,
JVASP-90023,ScAgGe,-0.57287,0.0,na,0.0,,,,,
JVASP-3882,Tl2TeCl6,-0.8507,2.411,2.947,0.0,,,,,
JVASP-66465,Ba4TaV,1.64587,0.0,na,1.6709,,,,,
JVASP-86326,ThSi2Os2,-0.73843,0.0,0.0,0.0,,,,,
JVASP-86806,Tb5SbAu2,-0.43281,0.0,na,0.373,,,,,
JVASP-63442,NaBH4,-0.37234,6.432,8.517,0.0031,,,,,
JVASP-69091,Ba2CdBi,-0.70673,0.0,na,0.0646,,,,,
JVASP-66219,Ba4RuRh,1.21172,0.0,na,1.2503,,,,,
JVASP-65640,BaGa2Cl,-0.82365,0.0,na,0.4846,,,,,
JVASP-61044,As4Se3,-0.03845,1.226,na,0.1448,,,,,
JVASP-62645,BC7,0.1856,0.0,0.0,0.2024,,,,,
JVASP-15481,PrCu2Ge2,-0.53492,0.0,na,0.0,,,,,
JVASP-66500,Ba4TcOs,1.67465,0.0,na,1.7061,,,,,
JVASP-62356,Zn3BPO7,-2.03535,3.497,5.436,0.0081,,,,,