jid,formula,formation_energy_per_atom,optb88vdw_bandgap,mbj_bandgap,ehull,spacegroup_number,natoms,volume,bulk_modulus_kv,shear_modulus_gv
JVASP-92295,YSi2Pd2,-0.89585,0.0,na,0.0,,,,,
JVASP-15228,NbGaNi2,-0.33045,0.0,0.0,0.0065,,,,,
JVASP-74652,BeTlSb2,0.61979,0.0,na,0.6259,,,,,
JVASP-74742,Mg4BeTl,0.39601,0.0,na,0.4364,,,,,
JVASP-43105,Mn2OF3,-2.2105,0.0,na,0.0,,,,,
JVASP-92665,Tm2AlNi2,-0.63219,0.0,na,0.0,,,,,
JVASP-106158,NaFeN,-0.05619,0.0,na,0.1705,,,,,
JVASP-99106,BaNb2Bi2O9,-2.40277,1.969,na,0.0012,,,,,
JVASP-92876,Mg6CrMo,0.41373,0.0,na,0.4137,,,,,
JVASP-105853,YbSr,0.04241,0.0,0.0,0.0424,,,,,
JVASP-93514,NdTlZn,-0.35544,0.0,na,0.0402,,,,,
JVASP-16227,YSi,-0.85139,0.0,na,0.0,,,,,
JVASP-95014,Ga2NiS4,-0.58959,0.0,na,0.0571,,,,,
JVASP-3924,UO2F2,-3.3378,2.289,2.322,0.0,,,,,
JVASP-72022,Na2BePt,0.05686,0.0,0.0,0.3427,,,,,
JVASP-48276,LiMnP3O9,-2.12695,2.641,na,0.0727,,,,,
JVASP-74470,ZrBe2Te,0.1854,0.0,0.0,0.7268,,,,,
JVASP-94043,Mg6VSb,0.07656,0.0,na,0.2112,,,,,
JVASP-96800,LiYP4O12,-2.56452,6.319,na,0.0,,,,,
JVASP-94354,Mg5Sn,-0.01061,0.0,na,0.1178,,,,,
JVASP-92414,LaCo2As2,-0.74701,0.0,na,0.0184,,,,,
JVASP-93229,BaFeO3,-2.13506,0.0,na,0.0,,,,,
JVASP-74985,NaMg2Be,0.31733,0.0,0.0,0.3245,,,,,
JVASP-93161,LiMg6Ga,-0.06342,0.0,na,0.0322,,,,,
JVASP-105671,Rb2AgSbBr6,-1.0824,0.825,na,0.0141,,,,,
JVASP-91355,Tl4PbI6,-0.67815,2.306,na,0.0,,,,,
JVASP-96131,H3NO4,-0.67203,3.765,na,0.0,,,,,
JVASP-16022,LuCuSi,-0.641,0.0,0.0,0.0,,,,,
JVASP-93833,WN2,-0.40764,0.827,na,0.2478,,,,,
JVASP-108006,ErSiRu2C,-0.60729,0.0,na,0.0,,,,,
JVASP-18747,MoRh3,-0.25836,0.0,na,0.0,,,,,
JVASP-94835,TmFe2O4,-2.18457,0.0,na,0.0801,,,,,
JVASP-93745,VAs2,-0.36325,0.0,na,0.0,,,,,
JVASP-74693,Ca2BeMo,0.80865,0.0,na,0.9275,,,,,
JVASP-18520,Li2Ga,-0.32613,0.0,na,0.0,,,,,
JVASP-92354,UNi2Ge2,-0.34952,0.0,na,0.0246,,,,,
JVASP-1177,GaSb,-0.14862,0.0,0.593,0.0,,,,,
JVASP-95064,NdSnAu,-0.79386,0.0,na,0.0606,,,,,
JVASP-96989,Bi2Ru2O7,-1.30469,0.0,na,0.0,,,,,
JVASP-105794,LiAcO3,-2.27057,0.0,0.0,0.1722,,,,,
JVASP-93683,Ce2MnN3,-1.40575,0.0,na,0.0,,,,,
JVASP-93515,Te2MoWSe2,-0.35609,0.757,na,0.1047,,,,,
JVASP-91278,MgPbF6,-2.64622,3.047,4.637,0.0,,,,,
JVASP-74794,Be2MoRh,-0.23807,0.0,na,0.1719,,,,,
JVASP-74743,NaBe2Os,0.40244,0.0,na,0.4055,,,,,
JVASP-74471,Sr2BeTl,0.00832,0.0,na,0.277,,,,,
JVASP-74513,BeFeW,0.1356,0.0,na,0.4563,,,,,
JVASP-92614,U2IrC2,-0.43439,0.0,na,0.0,,,,,
JVASP-74430,K2BeSe,-0.10133,0.0,0.0,0.8164,,,,,
JVASP-92919,Mg6BiW,0.18792,0.0,na,0.341,,,,,
JVASP-16196,Ba2Sb,-0.94194,0.0,na,0.019,,,,,
JVASP-75026,BeSnBi2,0.5497,0.0,0.0,0.5497,,,,,
JVASP-74653,Be2CrSi,0.1557,0.0,na,0.3139,,,,,
JVASP-92482,CeGe2Rh2,-0.81842,0.0,na,0.0,,,,,
JVASP-14811,Sm,0.0257,0.0,0.0,0.0,,,,,
JVASP-93935,LaOs2,-0.13242,0.0,na,0.0555,,,,,
JVASP-105712,Ac2TlSn,-0.51512,0.0,na,0.0,,,,,
JVASP-93785,CeAlIr,-0.80629,0.0,na,0.1755,,,,,
JVASP-99286,SiO2,-1.06415,0.0,na,1.8371,,,,,
JVASP-94882,CaNi5H,-0.13949,0.0,na,0.0915,,,,,
JVASP-92878,Mg6CrCd,0.11721,0.0,na,0.1575,,,,,
JVASP-91506,Ni5Se4Br2O12,-0.73045,0.455,na,0.0282,,,,,
JVASP-107940,Li2SnPb,-0.35939,0.0,0.0,0.0,,,,,
JVASP-94929,In2CuSe4,-0.38566,0.0,na,0.0494,,,,,
JVASP-93088,Mg6SiC,0.35242,0.0,na,0.4329,,,,,
JVASP-74834,BeTlPb2,0.52659,0.0,na,0.5392,,,,,
JVASP-108116,K2NaNbO2F4,-2.86494,2.252,na,0.0806,,,,,
JVASP-71759,TiBeCo2,-0.3047,0.0,0.0,0.154,,,,,
JVASP-95400,Ca3CuIrO6,-2.14922,0.0,na,0.0587,,,,,
JVASP-94394,Mg5Zn,-0.01113,0.0,na,0.0252,,,,,
JVASP-71974,Mn2BePd,0.0198,0.0,0.0,0.2999,,,,,
JVASP-91440,SrZnSe2O6,-1.60664,4.324,na,0.0,,,,,
JVASP-74611,BeTlIn2,0.49432,0.0,na,0.497,,,,,
JVASP-94739,Mg6AlGa,-0.02404,0.0,na,0.0373,,,,,
JVASP-74881,TiBeSi,0.18806,0.0,0.0,0.6921,,,,,
JVASP-15317,CeSi2Rh2,-0.99091,0.0,na,0.0,,,,,
JVASP-93746,NbS2,-1.09467,0.0,na,0.0282,,,,,
JVASP-50370,BaSrI4,-1.73439,3.439,na,0.1104,,,,,
JVASP-47523,Co3SbO8,-1.16088,0.0,na,0.0146,,,,,
JVASP-74694,LaBeCu2,0.37463,0.0,na,0.5921,,,,,
JVASP-14940,NdGa2,-0.6966,0.0,na,0.0224,,,,,
JVASP-94121,Mg6SiNi,0.03337,0.0,na,0.2038,,,,,
JVASP-106000,Si3P3Rh,-0.32753,0.843,na,0.0042,,,,,
JVASP-96552,SrSi7N10,-1.22191,4.119,na,0.0238,,,,,
JVASP-93516,MoWSe2S2,-0.7352,0.649,na,0.1229,,,,,
JVASP-96801,HgSeO3,-0.61488,2.498,na,0.0105,,,,,
JVASP-3726,CaHI,-1.22988,3.616,4.238,0.0,,,,,
JVASP-29107,Te6Mo3WS2,-0.27754,0.053,na,0.1519,,,,,
JVASP-93887,NaAs2,-0.1514,0.0,na,0.1508,,,,,
JVASP-74564,K2BeTe,-0.03386,0.0,0.351,0.7971,,,,,
JVASP-92296,CaCo2Si2,-0.63093,0.0,na,0.0,,,,,
JVASP-93451,KBF4,-3.10954,8.122,na,0.0424,,,,,
JVASP-105672,Na2LiBiBr6,-1.11878,3.069,na,0.2025,,,,,
JVASP-94048,Mg6VBi,0.11115,0.0,na,0.1946,,,,,
JVASP-74655,LiBe2Ga,0.33265,0.0,na,0.5037,,,,,
JVASP-92764,KVO3,-2.33014,0.084,na,0.1783,,,,,
JVASP-93289,Ce3AlN,-0.80276,0.0,na,0.0327,,,,,
JVASP-98983,Tb2SiSeO4,-3.20024,2.753,na,0.0,,,,,
JVASP-93343,PuB2Ir3,-0.2942,0.0,na,0.0,,,,,
JVASP-74696,TaBe2Re,0.17438,0.0,na,0.4432,,,,,
JVASP-74515,Be2FeCo,-0.2515,0.0,na,0.0078,,,,,
JVASP-94186,Mg6CuW,0.21657,0.0,na,0.3364,,,,,
JVASP-75027,ScBe2Cd,0.18278,0.0,na,0.4215,,,,,
JVASP-92708,BaGe3Rh,-0.58623,0.0,na,0.0,,,,,
JVASP-3159,Rb2Pd3S4,-0.80197,1.134,1.165,0.0053,,,,,
JVASP-1987,InI,-0.53945,1.616,1.779,0.0129,,,,,
JVASP-14668,TmPd,-0.9826,0.0,0.0,0.0,,,,,
JVASP-94798,NaCl7,-0.22021,0.244,0.965,0.2639,,,,,
JVASP-93162,LiMg6C,0.21303,0.0,na,0.2467,,,,,
JVASP-95551,Ca2CO3F2,-3.06127,5.269,na,0.0093,,,,,
JVASP-71975,TaBe2Pb,0.52677,0.0,na,0.7202,,,,,
JVASP-95246,H6C3N4O3,-0.57487,4.266,na,0.0,,,,,
JVASP-92572,TbSi3Rh,-0.70458,0.0,na,0.0091,,,,,
JVASP-106083,Fe3Si2Ni3,-0.25797,0.0,0.0,0.0787,,,,,
JVASP-16023,YCuSi,-0.69673,0.0,na,0.0,,,,,
JVASP-74987,BeGe2Te,0.63141,0.0,na,0.8429,,,,,
JVASP-94298,TbCo2,-0.23121,0.0,na,0.0101,,,,,
JVASP-74431,Be2HgIr,0.20061,0.0,na,0.5091,,,,,
JVASP-106160,MnPbN2,0.10523,0.0,0.0,0.329,,,,,
JVASP-105713,Ac2TlIn,-0.41827,0.0,na,0.0,,,,,
JVASP-99108,CuMoF6,-2.26304,0.0,na,0.012,,,,,
JVASP-105795,LiGePt2,-0.51993,0.0,na,0.034,,,,,
JVASP-95023,V3Te4,-0.30039,0.0,na,0.0229,,,,,
JVASP-92483,LaCdO3,-1.88163,0.0,na,0.4475,,,,,
JVASP-75028,Be2CrOs,-0.03621,0.0,na,0.1208,,,,,
JVASP-91225,Li4UF8,-3.3957,0.37,na,0.0,,,,,
JVASP-92356,Na2H2Pd,-0.3138,0.0,na,0.0,,,,,
JVASP-95065,Pr2Bi,-0.70527,0.0,na,0.0235,,,,,
JVASP-14713,ZnNi,-0.25502,0.0,na,0.0,,,,,
JVASP-96931,Ho5Si4,-0.7395,0.0,na,0.0156,,,,,
JVASP-94355,Mg2Sn,0.00605,0.0,na,0.2628,,,,,
JVASP-92530,Sr2Ge2Pb,-0.60543,0.0,na,0.0,,,,,
JVASP-21530,Li2SiO3,-2.71253,5.507,na,0.0,,,,,
JVASP-93946,LaAl2,-0.52632,0.0,na,0.0012,,,,,
JVASP-15607,UNi2Ge2,-0.3624,0.0,na,0.0117,,,,,
JVASP-96990,Zr3Si6Cu4,-0.46155,0.0,na,0.0,,,,,
JVASP-1891,LuNiSb,-0.91159,0.192,0.22,0.0,,,,,
JVASP-74567,Be2CuPd,-0.20645,0.0,na,0.1283,,,,,
JVASP-15989,HfGeS,-1.13158,0.0,na,0.0,,,,,
JVASP-93230,SrFeO3,-2.24846,0.0,na,0.0,,,,,
JVASP-72023,BeSiPt2,-0.38388,0.0,0.0,0.2105,,,,,
JVASP-92920,Mg6CdGa,-0.05617,0.0,na,0.0281,,,,,
JVASP-93089,Mg6SiW,0.16862,0.0,na,0.3183,,,,,
JVASP-96132,H3NO4,-0.67204,3.765,na,0.0,,,,,
JVASP-106002,Sc3Te4,-1.22966,0.0,na,0.0426,,,,,
JVASP-105934,Fe2CoSi,-0.29885,0.0,0.0,0.0,,,,,
JVASP-93517,Te2MoWS2,-0.43564,0.189,na,0.1825,,,,,
JVASP-108010,Ba2ErMoO6,-3.10512,0.0,na,0.0,,,,,
JVASP-74836,K2BeRh,0.71747,0.0,0.298,1.0213,,,,,
JVASP-3927,PrClO,-3.23932,4.647,5.875,0.0,,,,,
JVASP-74472,Sc2BeTe,-0.24047,0.0,0.0,0.4347,,,,,
JVASP-92297,BaMg2As2,-1.03962,1.152,na,0.0001,,,,,
JVASP-94395,SrMg2,0.12562,0.0,na,0.2863,,,,,
JVASP-94122,Mg6NbCo,0.16413,0.0,na,0.2139,,,,,
JVASP-92879,Mg6CrBi,0.11573,0.0,na,0.1992,,,,,
JVASP-75030,HfBeGa,0.22971,0.0,na,0.6243,,,,,
JVASP-105855,Sc3Bi,-0.34325,0.0,na,0.0231,,,,,
JVASP-92615,KCo2Se2,-0.51239,0.0,na,0.0298,,,,,
JVASP-96560,KBC4N4,-0.05817,6.166,na,0.3781,,,,,
JVASP-95402,UCr5P3,-0.50249,0.0,na,0.0032,,,,,
JVASP-94050,HfMg6V,0.27597,0.0,na,0.276,,,,,
JVASP-93685,CN2,0.88954,1.417,na,0.9009,,,,,
JVASP-15087,CaTl,-0.50853,0.0,na,0.0,,,,,
JVASP-74796,MnBe2Ge,0.11299,0.0,na,0.2893,,,,,
JVASP-92666,Er2BiO2,-2.8947,0.0,na,0.0,,,,,
JVASP-17348,YSnO3,-1.9493,0.0,na,0.8421,,,,,
JVASP-105673,KNa2GaF6,-2.74149,5.222,na,0.1924,,,,,
JVASP-74744,LiBe2Ru,-0.07376,0.0,na,0.1963,,,,,
JVASP-42654,Li4TiTe3O12,-1.80771,1.699,na,0.0297,,,,,
JVASP-108125,FeNiPt2,-0.02558,0.0,na,0.1546,,,,,
JVASP-74882,K2YBe,0.74905,0.0,0.0,0.7534,,,,,
JVASP-14812,Sm,-0.0,0.0,na,0.0,,,,,
JVASP-91442,RbH4SNO4,-1.19789,5.529,na,0.0,,,,,
JVASP-93786,Ti2H,-0.19765,0.0,na,0.0548,,,,,
JVASP-94836,Sr2RhO4,-2.21989,0.0,na,0.0043,,,,,
JVASP-94743,Mg6AlSb,-0.04225,0.0,na,0.1072,,,,,
JVASP-91280,SrIn4Pd,-0.47346,0.0,na,0.0119,,,,,
JVASP-91356,KAuI4,-0.56483,0.294,0.637,0.0007,,,,,
JVASP-94799,CdCu2SnTe4,-0.191,0.0,na,0.0109,,,,,
JVASP-106085,Dy2O3,-3.56238,1.581,3.828,0.2505,,,,,
JVASP-94189,Mg6CuMo,0.16073,0.0,na,0.211,,,,,
JVASP-56922,MnAsRh,-0.23782,0.0,na,0.0479,,,,,
JVASP-94883,YIn5Co,-0.25699,0.0,na,0.0053,,,,,
JVASP-48506,Li3FeO4,-1.85149,0.0,na,0.0221,,,,,
JVASP-93163,LiMg6Bi,-0.08226,0.0,na,0.0978,,,,,
JVASP-11965,Al5Co2,-0.47679,0.0,na,0.0,,,,,
JVASP-14861,GeIr,-0.28943,0.0,na,0.0,,,,,
JVASP-93454,CuS2,-0.16082,0.0,na,0.039,,,,,
JVASP-105796,LiAl2Au,-0.38217,0.0,na,0.0546,,,,,
JVASP-91507,Na2MnO2,-1.45286,0.017,na,0.1311,,,,,
JVASP-74697,K2BeSb,0.22532,0.0,0.0,0.6111,,,,,
JVASP-105714,YbAc2Mg,-0.03946,0.0,na,0.0151,,,,,
JVASP-92484,RbMoO3,-2.20283,0.0,na,0.0,,,,,
JVASP-96991,Ti2NiP5,-0.76241,0.0,na,0.0,,,,,
JVASP-71760,BeGa2Tc,-0.07411,0.0,0.0,0.069,,,,,
JVASP-16228,VB,-0.8068,0.0,0.0,0.0,,,,,
JVASP-94930,MgAl2S4,-1.34453,2.202,na,0.0289,,,,,
JVASP-106007,PuZr,0.37914,0.0,na,0.6229,,,,,
JVASP-48339,Li3Co2Ge2O8,-1.66897,0.0,na,0.1269,,,,,
JVASP-42145,Fe6O11F,-1.47947,0.0,na,0.0162,,,,,
JVASP-92415,LaAl2Zn2,-0.49551,0.0,na,0.0,,,,,
JVASP-93834,SmSnAu,-0.77499,0.0,na,0.0978,,,,,
JVASP-3729,SrHI,-1.29189,3.608,4.138,0.017,,,,,
JVASP-16024,NiC2S2N2,0.18335,0.231,0.281,0.3426,,,,,
JVASP-74837,TaBeTl,0.68598,0.0,na,0.8199,,,,,
JVASP-75031,BeMo4W,0.38503,0.0,na,0.5515,,,,,
JVASP-74884,TiBeP4,0.55914,0.0,na,1.0277,,,,,
JVASP-93387,MnGe2,0.03434,0.0,na,0.0574,,,,,
JVASP-92298,La3AlC,-0.25607,0.0,na,0.0488,,,,,
JVASP-29184,Te6Mo3WSe2,-0.25424,0.295,na,0.0965,,,,,
JVASP-93344,TaS2,-1.14598,0.0,na,0.0001,,,,,
JVASP-14669,Yb3Si5,-0.43516,0.0,0.0,0.0233,,,,,
JVASP-43824,Mn3O5F,-1.90061,0.0,na,0.0,,,,,
JVASP-74656,Be2VCl,0.07413,0.145,na,0.7476,,,,,
JVASP-92765,RbVO3,-2.19868,0.181,na,0.1572,,,,,
JVASP-74988,MnBe2Cl,0.25547,0.0,na,0.9474,,,,,
JVASP-74746,Be2SnTe,0.66888,0.0,na,0.8804,,,,,
JVASP-18921,TbP,-1.70837,0.0,0.0,0.0,,,,,
JVASP-71977,BeVSe2,0.03453,0.0,0.0,0.8424,,,,,
JVASP-105935,NbSb,-0.11305,0.0,na,0.1497,,,,,
JVASP-96870,Li3B5H2O10,-2.34946,6.151,na,0.0067,,,,,
JVASP-96932,RbTh2P3O12,-3.05327,5.184,na,0.0,,,,,
JVASP-3438,LiInSe2,-0.89684,1.576,2.812,0.0,,,,,
JVASP-48280,Li3Mn4O8,-1.95033,0.0,na,0.0905,,,,,
JVASP-108130,DyHo,0.00643,0.0,na,0.0115,,,,,
JVASP-74839,Be2MoOs,0.0005,0.0,na,0.2214,,,,,
JVASP-93231,SmCuO3,-2.09949,0.0,na,0.1083,,,,,
JVASP-92709,BaCo2Ge2,-0.42996,0.0,na,0.0,,,,,
JVASP-108012,Ba2LaUO6,-3.42689,0.931,na,0.0,,,,,
JVASP-74886,Be2FeSe,0.12503,0.0,na,0.6915,,,,,
JVASP-44035,Co2OF3,-1.62893,0.0,na,0.0194,,,,,
JVASP-93090,Mg6GaSi,0.00947,0.0,na,0.1336,,,,,
JVASP-95282,Zr2GaP3O12,-2.70757,4.413,na,0.0112,,,,,
JVASP-92880,Mg6CrB,0.45476,0.0,na,0.5755,,,,,
JVASP-74747,LaBeBi2,-0.12832,0.0,na,0.447,,,,,
JVASP-43596,Li2FeF5,-2.70632,1.362,na,0.0223,,,,,
JVASP-92357,Th2BiN2,-1.65235,0.0,na,0.0,,,,,
JVASP-94356,MgSn5,0.02688,0.0,na,0.0911,,,,,
JVASP-93290,SmZn2,-0.40827,0.0,na,0.0,,,,,
JVASP-107944,Li3Rh,-0.14133,0.0,0.0,0.0025,,,,,
JVASP-94123,Mg6CdCo,0.07509,0.0,na,0.1268,,,,,
JVASP-94056,NaMg6V,0.19703,0.0,na,0.1986,,,,,
JVASP-3633,PrCl3,-2.42517,4.406,5.393,0.0,,,,,
JVASP-93686,SmRu2,-0.22918,0.0,na,0.0299,,,,,
JVASP-74799,K2BeSe,-0.16854,1.195,1.558,0.7492,,,,,
JVASP-22603,TlF,-1.83186,3.097,3.806,0.0136,,,,,
JVASP-15194,SrP2Pd2,-0.84379,0.0,0.0,0.0,,,,,
JVASP-14813,Rb,0.00071,0.0,12.713,0.0,,,,,
JVASP-95066,ErSe2,-1.60629,0.0,0.0,0.0042,,,,,
JVASP-571,YS2,-1.881,0.0,0.0,0.0298,,,,,
JVASP-95403,As2Pb3O8,-1.40456,3.492,na,0.0,,,,,
JVASP-72024,LiBeCo2,0.10092,0.0,na,0.2621,,,,,
JVASP-99113,CuBi2Se4O12,-0.99306,0.674,na,0.0,,,,,
JVASP-105674,Na2LiYBr6,-1.63448,3.192,na,0.1748,,,,,
JVASP-93791,CeIr5,-0.11273,0.0,na,0.3475,,,,,
JVASP-95556,BaH2O2,-1.88927,4.884,na,0.0,,,,,
JVASP-96802,Cu6GeWS8,-0.43977,0.566,na,0.0056,,,,,
JVASP-96735,Al2O3,-3.12509,4.945,6.54,0.1882,,,,,
JVASP-92531,Fe2O3,-0.80252,0.0,na,0.6471,,,,,
JVASP-106161,BaZn2N2,-0.27497,0.813,1.601,0.1298,,,,,
JVASP-93455,NbCrO4,-2.45684,0.0,na,0.0341,,,,,
JVASP-91229,K2Pd3Se4,-0.71287,0.858,1.02,0.0,,,,,
JVASP-93519,Te4MoW,-0.13487,0.944,na,0.0783,,,,,
JVASP-94396,MgZn5,-0.03009,0.0,na,0.0379,,,,,
JVASP-105799,LiCeZn2,-0.21667,0.0,na,0.0515,,,,,
JVASP-18413,TbH2,-0.73745,0.0,0.375,0.0,,,,,
JVASP-92921,HfMg6W,0.2329,0.0,na,0.3025,,,,,
JVASP-50944,Tb2Nb2O7,-3.1887,0.0,na,0.0716,,,,,
JVASP-3162,KSbS2,-0.84294,1.43,2.447,0.0,,,,,
JVASP-20073,TaC,-0.63999,0.0,0.0,0.0,,,,,
JVASP-94191,Mg6VCo,0.28887,0.0,na,0.341,,,,,
JVASP-93388,SrMg,0.11124,0.0,na,0.2317,,,,,
JVASP-94744,Mg6NbAl,0.0956,0.0,na,0.1803,,,,,
JVASP-93889,YbSi2,-0.41414,0.0,na,0.0,,,,,
JVASP-92766,NaCrO3,-1.9341,0.0,na,0.1745,,,,,
JVASP-93747,TmTe2,-1.11079,0.0,na,0.0736,,,,,
JVASP-15608,CaFe2P2,-0.90698,0.0,0.0,0.0,,,,,
JVASP-105937,USbPd2,-0.42055,0.0,0.0,0.0965,,,,,
JVASP-105716,Ac3Dy,0.04949,0.0,na,0.0592,,,,,
JVASP-92299,Mn2ZnAs2,0.02517,0.0,na,0.1897,,,,,
JVASP-91443,CrHg5S2O5,-0.68189,1.869,1.976,0.1827,,,,,
JVASP-96148,BaMg2H8Os,-0.46315,2.153,2.71,0.0,,,,,
JVASP-92617,SrMnO3,-2.47128,0.0,na,0.0522,,,,,
JVASP-74801,BeNbTl,0.63653,0.0,0.0,0.7623,,,,,
JVASP-18844,SmPd,-0.8973,0.0,0.0,0.0,,,,,
JVASP-74748,BeVRu,0.03964,0.0,na,0.3647,,,,,
JVASP-71978,BeNi2Rh,-0.14908,0.0,na,0.1505,,,,,
JVASP-94800,YbMnSb2,-0.41066,0.0,na,0.0973,,,,,
JVASP-93164,NaLiMg6,0.02231,0.0,na,0.0548,,,,,
JVASP-92573,Sm2BiO2,-2.79357,0.0,na,0.0,,,,,
JVASP-74989,K2MnBe,1.10593,0.0,0.0,1.1984,,,,,
JVASP-16122,RbPdF3,-2.019,0.0,na,0.0173,,,,,
JVASP-92668,SrMg2Bi2,-0.66565,0.613,na,0.0,,,,,
JVASP-92416,SrCr2As2,-0.44947,0.0,na,0.0763,,,,,
JVASP-105860,SrCa3,0.01289,0.0,na,0.03,,,,,
JVASP-93520,TeMoSe,-0.42077,0.665,na,0.0353,,,,,
JVASP-106086,Dy2Si3,-0.59204,0.0,0.0,0.0536,,,,,
JVASP-95069,NbFe2,-0.15828,0.0,na,0.0156,,,,,
JVASP-94837,In2Rh3S2,-0.52599,0.0,na,0.0,,,,,
JVASP-94884,Cr3Te4,-0.13649,0.0,na,0.022,,,,,
JVASP-91357,SmSb2,-0.80586,0.0,na,0.0126,,,,,
JVASP-11966,Mg2Ni,-0.21987,0.0,na,0.021,,,,,
JVASP-13827,MgSiO3,-2.78536,5.262,6.472,0.2417,,,,,
JVASP-107946,LiCa3,0.03095,0.0,na,0.0473,,,,,
JVASP-15116,HoB2Ru3,-0.46124,0.0,na,0.0,,,,,
JVASP-75035,Na2BePt,0.32851,0.0,0.0,0.6143,,,,,
JVASP-74750,BeGaCu,0.17285,0.0,na,0.2785,,,,,
JVASP-74841,BeVFe,0.1156,0.0,na,0.3591,,,,,
JVASP-108014,Ba2ScTaO6,-3.47398,3.065,na,0.0,,,,,
JVASP-15787,ErCd3,-0.28637,0.0,na,0.0,,,,,
JVASP-105802,LiZrPd2,-0.61631,0.0,na,0.0118,,,,,
JVASP-98990,Ti4Si7Ni4,-0.62539,0.0,na,0.0064,,,,,
JVASP-92881,Mg6NbMo,0.28102,0.0,na,0.3107,,,,,
JVASP-95247,Li3H6Ir,-0.48163,3.176,3.209,0.0195,,,,,
JVASP-94124,Mg6VNi,0.21922,0.0,na,0.3095,,,,,
JVASP-93091,Mg6SiB,0.15272,0.0,na,0.2692,,,,,
JVASP-93835,SmO2,-2.89836,0.0,na,0.1634,,,,,
JVASP-94299,TbSi2,-0.49944,0.0,na,0.0385,,,,,
JVASP-94931,CaNi5H,-0.15091,0.0,na,0.0801,,,,,
JVASP-91289,SrIn4Ni,-0.33951,0.0,na,0.0,,,,,
JVASP-74990,BeTcSn2,0.51132,0.0,na,0.5935,,,,,
JVASP-93947,YCu2,-0.32802,0.0,na,0.0,,,,,
JVASP-1912,InAgO2,-1.17142,0.406,1.319,0.0,,,,,
JVASP-92922,Mg6BiW,0.23063,0.0,na,0.3837,,,,,
JVASP-93345,Ta2Si,-0.45933,0.0,na,0.0021,,,,,
JVASP-71761,Li2BeW,0.39262,0.0,na,0.5689,,,,,
JVASP-96993,TbLi4F8,-3.2278,0.0,na,0.0807,,,,,
JVASP-94060,Mg6NbV,0.28361,0.0,na,0.2836,,,,,
JVASP-14814,Yb,0.00364,0.0,0.0,0.0,,,,,
JVASP-105675,Na2HgAsF6,-1.94095,0.0,na,0.3481,,,,,
JVASP-96871,K4GeH4N2O3,-1.08024,2.77,na,0.0,,,,,
JVASP-14941,PrAg,-0.29015,0.0,0.0,0.0,,,,,
JVASP-93389,SrMg,0.09454,0.0,na,0.215,,,,,
JVASP-15822,SnP3,-0.04903,0.0,na,0.0,,,,,
JVASP-4852,ScAgP2Se6,-0.51957,1.481,1.689,0.0,,,,,
JVASP-344,WO3,-2.28072,0.177,1.574,0.0993,,,,,
JVASP-96563,Li2MgMn3O8,-2.19866,1.196,na,0.0,,,,,
JVASP-94357,MgSn2,-0.00465,0.0,na,0.1237,,,,,
JVASP-93748,NdAg2,-0.3154,0.0,na,0.0,,,,,
JVASP-15990,HoSb2,-0.21421,0.0,0.0,0.5568,,,,,
JVASP-96803,KCa12Si4S2O26F,-3.0375,4.522,na,0.0,,,,,
JVASP-94194,SrMg6Ni,0.03355,0.0,na,0.1841,,,,,
JVASP-75036,Be2GeOs,0.03694,0.0,na,0.0556,,,,,
JVASP-1768,ScAgSe2,-1.14235,0.765,1.204,0.0,,,,,
JVASP-74992,TaBe2Cr,0.31943,0.0,na,0.5409,,,,,
JVASP-99114,NdPH5CO7,-1.71544,3.824,na,0.1066,,,,,
JVASP-106008,PuNpB4,-0.53463,0.0,0.0,0.0011,,,,,
JVASP-108135,Cu3PdAu4,-0.08648,0.0,na,0.0,,,,,
JVASP-52371,TiOF,-3.3031,0.0,2.465,0.0046,,,,,
JVASP-16025,NpSO,-2.60011,0.0,0.0,0.0,,,,,
JVASP-95283,SrLiAl3N4,-1.39184,3.193,na,0.0,,,,,
JVASP-3732,Sr2H6Ru,-0.63704,2.179,2.384,0.0,,,,,
JVASP-92418,NpNi2Ge2,-0.41092,0.0,na,0.0,,,,,
JVASP-105939,Tl2VF6,-2.54919,0.0,2.222,0.0,,,,,
JVASP-92485,SrGe2Pd2,-0.71799,0.0,na,0.0,,,,,
JVASP-96736,Si,2e-05,0.704,1.181,0.0,,,,,
JVASP-94802,CaCeMg6,0.00919,0.0,na,0.0702,,,,,
JVASP-14670,Si,0.42861,0.0,0.0,0.0,,,,,
JVASP-93688,ScB2Ir3,-0.58437,0.0,na,0.0267,,,,,
JVASP-3819,K2AgBi,-0.39765,0.948,1.641,0.0117,,,,,
JVASP-106087,Dy2InAg,-0.42501,0.0,na,0.0038,,,,,
JVASP-49965,Rb3ClO,-1.47373,0.489,2.609,0.0687,,,,,
JVASP-93291,MgHg5,0.1726,0.0,na,0.2173,,,,,
JVASP-93792,CrNi2,0.23627,0.0,na,0.2747,,,,,
JVASP-92532,Tb2Ni2Sn,-0.62678,0.0,na,0.0,,,,,
JVASP-94397,MgZn2,-0.04661,0.0,na,0.0894,,,,,
JVASP-93522,MgAl,0.00387,0.0,na,0.0484,,,,,
JVASP-93457,MnO2,-1.80021,0.0,na,0.0047,,,,,
JVASP-93232,SrCuO3,-1.56302,0.0,na,0.024,,,,,
JVASP-18444,Te2AuCl,-0.27011,0.0,na,0.0,,,,,
JVASP-95414,CaV2O4,-2.73781,0.0,na,0.0105,,,,,
JVASP-92711,BaZn2Si2,-0.32491,0.0,na,0.0,,,,,
JVASP-91233,Al2Pb3F12,-3.11619,5.318,na,0.0062,,,,,
JVASP-99352,SrH2Br2O,-1.65854,4.569,na,0.0,,,,,
JVASP-92882,Mg6CrSb,0.08104,0.0,na,0.2157,,,,,
JVASP-107947,LiTi2Ir,-0.55203,0.0,0.0,0.0,,,,,
JVASP-92618,Na2HfN2,-0.91117,0.0,na,0.0,,,,,
JVASP-93836,NaFeAs,-0.25795,0.0,na,0.0635,,,,,
JVASP-92574,SrB2N2,-0.82401,3.385,na,0.3913,,,,,
JVASP-99372,Er3Pb,-0.24641,0.0,na,0.1125,,,,,
JVASP-105803,LiSc2Pd,-0.45665,0.0,na,0.0613,,,,,
JVASP-74802,ZrBe2Ga,0.10687,0.0,0.0,0.5049,,,,,
JVASP-91509,V2CdO6,-2.21243,2.137,2.444,0.0255,,,,,
JVASP-93346,UPt5,-0.57259,0.0,na,0.0,,,,,
JVASP-96933,La6Ti2S8O5,-2.77575,1.284,na,0.0,,,,,
JVASP-16154,YbCuSb,-0.76956,0.0,0.0,0.0099,,,,,
JVASP-108022,Rb2CuF6,-2.14161,0.0,na,0.0,,,,,
JVASP-15195,USi2Ru2,-0.60579,0.0,na,0.0,,,,,
JVASP-93390,MgZr,0.06195,0.0,na,0.0619,,,,,
JVASP-93165,NaLiMg6,0.02035,0.0,na,0.0529,,,,,
JVASP-93890,NaPO,-0.7306,0.0,na,0.9128,,,,,
JVASP-96994,Fe4Bi2O9,-1.32642,0.0,na,0.0946,,,,,
JVASP-94838,BaFe2Se4,-0.77362,0.0,na,0.1016,,,,,
JVASP-94933,Er2Cr2C3,-0.42154,0.0,na,0.0,,,,,
JVASP-95564,PHSF2,-1.33065,4.36,na,0.0,,,,,
JVASP-96152,NaCrF6,-2.53821,0.0,na,0.0201,,,,,
JVASP-94061,Mg6VW,0.22753,0.0,na,0.2971,,,,,
JVASP-15609,CeSi2Ag2,-0.35699,0.0,na,0.0023,,,,,
JVASP-56540,Rb2NbCl6,-1.72415,0.0,3.298,0.0,,,,,
JVASP-91291,CeSnIr,-0.87126,0.0,na,0.0,,,,,
JVASP-94300,Th2Ag,-0.09387,0.0,na,0.009,,,,,
JVASP-18587,ScInAg2,-0.31879,0.0,0.0,0.0,,,,,
JVASP-105676,Rb2NbHgF6,-2.60665,0.0,na,0.1973,,,,,
JVASP-71979,BeMo2W,0.13499,0.0,0.0,0.3846,,,,,
JVASP-14714,NbRu,-0.17089,0.0,0.0,0.0,,,,,
JVASP-94803,BaMg6Fe,0.21367,0.0,na,0.2927,,,,,
JVASP-93689,TbNi2,-0.48824,0.0,na,0.0,,,,,
JVASP-106163,ZnNiF6,-1.86617,1.146,na,0.0,,,,,
JVASP-94202,CeMg6Co,0.11839,0.0,na,0.1775,,,,,
JVASP-15823,GeP3,-0.01138,0.0,na,0.0,,,,,
JVASP-11967,Mg17Al12,-0.04879,0.0,na,0.0,,,,,
JVASP-92300,Al3Tc2,-0.17779,0.0,na,0.2053,,,,,
JVASP-91444,ZnGa3N3O,-0.80135,1.329,na,0.0249,,,,,
JVASP-93092,Mg6SiW,0.20242,0.0,na,0.3521,,,,,
JVASP-74842,HfMgBe2,0.4244,0.0,0.0,0.5912,,,,,
JVASP-14862,CaPd,-0.7773,0.0,na,0.0,,,,,
JVASP-105862,TaAgO3,-2.16511,1.779,na,0.0317,,,,,
JVASP-15705,SrAgAs,-0.84816,0.0,na,0.0,,,,,
JVASP-95248,Mg7Si4H2O16,-2.7617,4.304,na,0.0781,,,,,
JVASP-92923,Mg6CdB,0.25843,0.0,na,0.3351,,,,,
JVASP-42852,Pr2CuIr,-0.47648,0.0,na,0.0182,,,,,
JVASP-18414,TiH2,-0.50482,0.0,0.0,0.0,,,,,
JVASP-105717,AlPb3,0.14685,0.0,na,0.1469,,,,,