jid,formula,formation_energy_per_atom,optb88vdw_bandgap,mbj_bandgap,ehull,spacegroup_number,natoms,volume,bulk_modulus_kv,shear_modulus_gv
JVASP-48296,Li3V2Fe3O10,-2.00006,0.0,na,0.1062,,,,,
JVASP-51020,SrH4O3,-1.602,4.545,6.855,0.0,,,,,
JVASP-99913,U2AsS,-1.09775,0.0,0.0,0.0013,,,,,
JVASP-99395,Ba2UGeO6,-2.87159,0.598,na,0.1133,,,,,
JVASP-99541,NdTm,0.03932,0.0,na,0.0394,,,,,
JVASP-47626,Li2NbCo3O8,-1.83985,0.732,na,0.0192,,,,,
JVASP-99584,Ge,0.26034,0.0,0.0,0.0,,,,,
JVASP-1876,CrAgO2,-1.47868,0.466,na,0.1047,,,,,
JVASP-95334,Ce3PbC,1.88238,0.0,na,2.1883,,,,,
JVASP-102202,LaMnIn,-0.04592,0.0,na,0.3134,,,,,
JVASP-19864,ErPd,-0.97091,0.0,na,0.0,,,,,
JVASP-93716,CeMg,0.03741,0.0,na,0.0649,,,,,
JVASP-57097,FeBiO3,-1.26874,0.0,0.0,0.138,,,,,
JVASP-99824,NaPm2Sn,-0.34669,0.0,na,0.0411,,,,,
JVASP-92592,HgNCl3,0.9015,0.0,na,1.1983,,,,,
JVASP-96955,P3IrO9,-1.81151,2.268,na,0.0,,,,,
JVASP-15358,HoAgSn,-0.58914,0.0,0.0,0.0,,,,,
JVASP-95642,AuF3,-1.04575,1.502,1.885,0.0,,,,,
JVASP-101376,LaPO4,-3.14936,5.349,na,0.0215,,,,,
JVASP-15709,Ga2NiS4,-0.59051,0.0,na,0.0562,,,,,
JVASP-99731,Rb3AsF6,-2.63419,4.472,na,0.0,,,,,
JVASP-100643,Sc2Se3,-1.7659,0.796,1.172,0.0,,,,,
JVASP-102943,Ho2NiRu,-0.4913,0.0,na,0.0,,,,,
JVASP-99194,Al2SiO5,-2.89404,4.296,na,0.2763,,,,,
JVASP-96839,AlH3,-0.08307,3.451,4.933,0.0189,,,,,
JVASP-96772,Mg5Si6,0.12366,0.0,na,0.2707,,,,,
JVASP-96902,V2Ga5,-0.19933,0.0,na,0.0,,,,,
JVASP-103282,MgSc2Ir,-0.61926,0.0,0.0,0.0184,,,,,
JVASP-100321,YbNbPb2O6,-2.08335,0.0,na,0.1604,,,,,
JVASP-1303,NdMg,-0.10686,0.0,0.0,0.0,,,,,
JVASP-100273,TbSnIr,-0.88259,0.0,na,0.0,,,,,
JVASP-94274,LiNiO2,-1.4708,0.0,na,0.0094,,,,,
JVASP-100469,MnCuNiSn,0.01366,0.0,0.0,0.1133,,,,,
JVASP-100364,NbMoO4,-2.3261,0.0,na,0.0677,,,,,
JVASP-100414,CePaO4,-3.90991,0.0,na,0.0009,,,,,
JVASP-99869,MoS2I2,-0.27645,0.0,na,0.3005,,,,,
JVASP-102090,Rb3GaI6,-1.00875,0.97,1.921,0.1326,,,,,
JVASP-102148,ScPd2Pb,-0.65502,0.0,0.0,0.0218,,,,,
JVASP-103371,TbBa2TaO6,-3.42355,3.447,4.525,0.0,,,,,
JVASP-100597,DyY3,0.00494,0.0,na,0.0062,,,,,
JVASP-99770,Er2PdPt,-1.17105,0.0,na,0.0145,,,,,
JVASP-99542,Pr3Ho,0.01251,0.0,na,0.0231,,,,,
JVASP-99496,Zr2TcIr,-0.76467,0.0,0.0,0.0,,,,,
JVASP-99626,Fe2O3,-1.44962,0.409,0.734,0.0,,,,,
JVASP-15089,YbFe2Si2,-0.54696,0.0,0.0,0.0,,,,,
JVASP-100015,CrFe3As2,0.00201,0.0,na,0.1292,,,,,
JVASP-99043,NaSnP,-0.36722,0.569,na,0.0,,,,,
JVASP-51077,Sr2FeClO3,-2.47478,0.0,na,0.0,,,,,
JVASP-100727,Yb2LiIn,-0.30932,0.0,0.0,0.0011,,,,,
JVASP-100176,EuAu3,-0.72796,0.0,na,0.0,,,,,
JVASP-15403,ScNi2Sn,-0.57245,0.0,0.0,0.0,,,,,
JVASP-103199,Rb2InAsF6,-2.40648,2.009,na,0.0845,,,,,
JVASP-93419,Ti2CuSb3,-0.28685,0.0,na,0.0551,,,,,
JVASP-93315,CaMg5,0.04767,0.0,na,0.1186,,,,,
JVASP-92728,CrGa4,-0.15304,0.0,na,0.0,,,,,
JVASP-101446,YSiPd,-0.93728,0.0,na,0.03,,,,,
JVASP-100137,SrH2,-0.61709,1.678,2.955,0.0466,,,,,
JVASP-18591,NaAg2,-0.11376,0.0,na,0.0,,,,,
JVASP-99319,BaMgP2O7,-2.81216,5.65,na,0.0,,,,,
JVASP-43694,CdFeO3,-1.25906,0.0,0.0,0.0616,,,,,
JVASP-99396,ZrFeCo,-0.3271,0.0,na,0.0097,,,,,
JVASP-100816,NaLaSe2,-1.77103,0.52,na,0.0976,,,,,
JVASP-93911,ErCu4Pd,-0.39379,0.0,na,0.0,,,,,
JVASP-101397,Ga3Pt,-0.11262,0.0,na,0.327,,,,,
JVASP-103106,DyMn2SiGe,-0.50635,0.0,0.0,0.0147,,,,,
JVASP-99961,Mn6GaGe,0.04331,0.0,na,0.0963,,,,,
JVASP-103488,LaCeAl2O6,-3.55253,0.0,na,0.0133,,,,,
JVASP-2523,KAuS,-0.84006,2.296,3.451,0.0,,,,,
JVASP-18471,TiIN,-1.26607,0.0,0.0,0.0109,,,,,
JVASP-92550,ScAu4,-0.58505,0.0,na,0.0,,,,,
JVASP-100774,ZrHBr,-0.88901,0.0,na,0.0633,,,,,
JVASP-15279,Ti2SnC,-0.75623,0.0,na,0.0,,,,,
JVASP-96840,Ca3SiBr2,-1.08627,0.0,na,0.2784,,,,,
JVASP-43598,LiMnF3,-2.67044,2.3,na,0.0469,,,,,
JVASP-92686,PrAl3Cu,-0.51256,0.0,na,0.0,,,,,
JVASP-100066,Mn2OF2,-1.92841,0.645,na,0.0,,,,,
JVASP-106309,NiH6Cl2,-0.06948,0.79,na,0.1395,,,,,
JVASP-14652,MnV,-0.28372,0.0,0.0,0.0086,,,,,
JVASP-99669,Bi2TeO2,-1.01462,0.0,0.479,0.0,,,,,
JVASP-100535,YbMnCuP2,-0.68966,0.0,na,0.0,,,,,
JVASP-93812,CdHgS4,0.2879,0.0,na,0.5225,,,,,
JVASP-18750,ZrMo3,0.20958,0.0,na,0.3138,,,,,
JVASP-99444,Sm2In3Cu,-0.44493,0.0,0.0,0.0219,,,,,
JVASP-100728,LiHo2In,-0.25604,0.0,na,0.0298,,,,,
JVASP-100470,SrEuIn2,-0.4556,0.0,na,0.0,,,,,
JVASP-99771,Er2AgAu,-0.6706,0.0,na,0.0022,,,,,
JVASP-100274,Ba2MgMoO6,-2.90077,2.14,na,0.0,,,,,
JVASP-44438,Li2Co3SnO8,-1.58871,0.0,na,0.0271,,,,,
JVASP-102861,Na2GaAgF6,-2.36485,1.464,4.814,0.1061,,,,,
JVASP-97023,BaFe2As2,-0.58901,0.0,na,0.0,,,,,
JVASP-99627,MnAgO3,-1.17761,0.0,na,0.0146,,,,,
JVASP-287,SnO2,-1.09791,0.0,1.057,0.6979,,,,,
JVASP-99825,Nd3Sm,0.02802,0.0,na,0.0385,,,,,
JVASP-100415,CeYAl4,-0.48497,0.0,na,0.0303,,,,,
JVASP-100017,Cr2SeS,-0.3749,0.0,na,0.1595,,,,,
JVASP-100644,PrYMg4,-0.0934,0.0,na,0.0265,,,,,
JVASP-99914,TiMnSb,-0.12474,0.0,na,0.2055,,,,,
JVASP-100598,ErTmPd2,-0.97647,0.0,na,0.0003,,,,,
JVASP-18423,LiCuO2,-1.19295,0.0,0.0,0.068,,,,,
JVASP-94276,CeMg5,0.05043,0.0,na,0.0608,,,,,
JVASP-11947,Co3Ni,0.00555,0.0,na,0.0384,,,,,
JVASP-18924,FePt3,-0.16546,0.0,0.0,0.0154,,,,,
JVASP-102091,Rb2InSbCl6,-1.3575,0.585,na,0.0393,,,,,
JVASP-19909,ZnTe,-0.19657,0.0,0.0,0.2722,,,,,
JVASP-15827,LiMgSnPd,-0.5847,0.0,na,0.0,,,,,
JVASP-102203,KZnCuTe2,-0.54427,0.932,2.189,0.0362,,,,,
JVASP-20078,ThGe,-0.82547,0.0,0.0,0.0,,,,,
JVASP-99397,TiAlFe2,-0.44094,0.0,na,0.0564,,,,,
JVASP-95470,Cr2Te4O11,-1.38912,1.057,na,0.0465,,,,,
JVASP-100138,MgCu3NiSe4,-0.30234,0.0,na,0.1449,,,,,
JVASP-95643,Sm2CN2O2,-2.27951,3.809,5.471,0.0,,,,,
JVASP-93421,UCu5,0.11588,0.0,na,0.1159,,,,,
JVASP-14870,SN,0.51372,0.0,na,0.5302,,,,,
JVASP-15567,MnCo2Sb,0.01231,0.0,0.0,0.0956,,,,,
JVASP-14717,SmRh,-0.77515,0.0,0.0,0.0,,,,,
JVASP-99046,La2Al2I,-0.85918,0.0,na,0.0,,,,,
JVASP-103202,Rb2NaLaCl6,-2.20332,5.036,na,0.0473,,,,,
JVASP-101450,Tb2NiSb4,-0.75424,0.0,na,0.0044,,,,,
JVASP-96903,U2Fe2Sn,-0.22473,0.0,na,0.0,,,,,
JVASP-100322,YBeCu4,-0.18076,0.0,na,0.051,,,,,
JVASP-99732,CdHg3Te4,-0.05562,0.0,0.286,0.0466,,,,,
JVASP-102149,RbO,-0.7877,0.0,0.0,0.419,,,,,
JVASP-100178,Eu2SbAu,-0.84183,0.0,0.0,0.0,,,,,
JVASP-100228,Th3Ta,0.2963,0.0,na,0.2963,,,,,
JVASP-103489,ErAgSe2,-1.1403,0.0,0.0,0.0975,,,,,
JVASP-96773,Mg4AlSi6,0.11852,0.0,na,0.2367,,,,,
JVASP-15205,CeCo2Si2,-0.71595,0.0,na,0.0,,,,,
JVASP-99213,Co3P2O8,-1.59949,0.005,na,0.0204,,,,,
JVASP-94908,CdPPd5,-0.41959,0.0,na,0.0,,,,,
JVASP-100729,LiLaAu2,-0.7394,0.0,na,0.053,,,,,
JVASP-100931,Rb2ScInI6,-1.22064,1.726,1.726,0.0,,,,,
JVASP-99870,BaSrCo2O6,-2.01627,0.0,na,0.0295,,,,,
JVASP-13843,Co2Ge,-0.0717,0.0,na,0.064,,,,,
JVASP-100471,Na2GaAgCl6,-1.15251,0.719,na,0.1977,,,,,
JVASP-52372,K2Mg2O3,-2.25246,3.311,5.567,0.0289,,,,,
JVASP-99320,Ta2Tl4S11,-0.63079,1.439,na,0.0004,,,,,
JVASP-103283,MgPb3,0.00706,0.0,na,0.0523,,,,,
JVASP-92593,ZnNi3N,-0.18317,0.0,na,0.0,,,,,
JVASP-99962,MgCdS2,-1.07573,0.116,1.36,0.0819,,,,,
JVASP-100599,Eu2TlCd,-0.39223,0.0,na,0.0,,,,,
JVASP-103107,CoTeSe,-0.23942,0.0,0.0,0.0253,,,,,
JVASP-99826,NdHoMg2,-0.08389,0.0,na,0.0044,,,,,
JVASP-103031,Zn4Ni5Ge,-0.20947,0.0,na,0.0517,,,,,
JVASP-3513,YbBr2,-2.18358,4.75,6.665,0.0015,,,,,
JVASP-99585,CrB2Mo,-0.43157,0.0,0.0,0.036,,,,,
JVASP-99628,FeCoO4,-1.14648,0.0,na,0.107,,,,,
JVASP-72481,GaAgTe2,-0.23903,0.105,na,0.0001,,,,,
JVASP-99398,ThZr2,0.13627,0.0,na,0.1363,,,,,
JVASP-100140,Ac3Zr,0.2446,0.0,na,0.2531,,,,,
JVASP-94277,MgCd2,0.22986,0.0,na,0.316,,,,,
JVASP-96956,FePO4,-1.85601,0.958,na,0.0258,,,,,
JVASP-100365,Nd2Mn3FeGe4,-0.4435,0.0,na,0.0142,,,,,
JVASP-14673,Ag2O,-0.16785,0.146,0.508,0.0,,,,,
JVASP-99497,TbMgTl,-0.34882,0.0,0.0,0.0,,,,,
JVASP-100859,TaSN,-1.00872,0.224,0.811,0.1007,,,,,
JVASP-103372,AlNi3C,-0.17855,0.0,na,0.1798,,,,,
JVASP-102944,InHg3,0.17416,0.0,na,0.1755,,,,,
JVASP-18941,TiCo2,-0.33749,0.0,na,0.0105,,,,,
JVASP-100817,NaBiTe2,-0.46743,0.0,0.008,0.1175,,,,,
JVASP-99772,Dy3Lu,0.01945,0.0,na,0.0231,,,,,
JVASP-16103,NdCoC2,-0.35477,0.0,0.0,0.0,,,,,
JVASP-99915,U3Al3CoRu2,-0.38888,0.0,na,0.0632,,,,,
JVASP-101398,Eu2ZnRh,-0.59919,0.0,0.0,0.0,,,,,
JVASP-100018,CePd2Pt,-0.91186,0.0,na,0.0062,,,,,
JVASP-99670,WN2,-0.3838,0.7,na,0.2716,,,,,
JVASP-15101,HoSi2Ni2,-0.81844,0.0,0.0,0.0,,,,,
JVASP-96905,TbInAu,-0.77261,0.0,na,0.0,,,,,
JVASP-100775,Nb2B2Mo,-0.61254,0.0,0.0,0.0,,,,,
JVASP-15359,SrNi2As2,-0.69041,0.0,na,0.0,,,,,
JVASP-51151,SrTa2Mn,1.07047,0.0,na,1.2045,,,,,
JVASP-92687,V2N3,-0.90618,0.0,na,0.1503,,,,,
JVASP-100416,CeSiBIr3,-0.68098,0.0,na,0.0757,,,,,
JVASP-95645,Tl3FeCl5,-0.95567,0.0,na,0.0,,,,,
JVASP-100179,DyYIn2,-0.49817,0.0,na,0.0134,,,,,
JVASP-103204,KRb2AuBr6,-1.06581,0.0,0.0,0.1502,,,,,
JVASP-100067,Li2VF4,-2.85437,0.792,na,0.1336,,,,,
JVASP-97024,CaFe2As2,-0.57089,0.0,na,0.0,,,,,
JVASP-100275,NdLuS3,-2.10968,0.69,na,0.1401,,,,,
JVASP-92638,NdGe2Au2,-0.53178,0.0,na,0.0111,,,,,
JVASP-102204,La2Mn3FeSi4,-0.51222,0.0,na,0.0113,,,,,
JVASP-93813,HoSi2,-0.46624,0.0,na,0.1017,,,,,
JVASP-107795,TbNa3Cl6,-1.95157,3.81,na,0.1683,,,,,
JVASP-99445,PrSO,-2.66977,0.874,1.791,0.0645,,,,,
JVASP-101040,Zr3Pb,-0.16246,0.0,na,0.0167,,,,,
JVASP-99543,Sc2NiPd,-0.74026,0.0,0.0,0.0185,,,,,
JVASP-99871,Rb2ReF6,-2.64303,1.555,na,0.0,,,,,
JVASP-92551,BaGe3Pd,-0.58942,0.0,na,0.0,,,,,
JVASP-16231,Nb2PC,-0.78288,0.0,na,0.0,,,,,
JVASP-99399,ThZr3,0.08127,0.0,na,0.0813,,,,,
JVASP-99827,NdYZn2,-0.37755,0.0,na,0.0078,,,,,
JVASP-106316,ZnSiNi2,-0.32699,0.0,na,0.0503,,,,,
JVASP-103490,CuBiSe2,-0.20671,0.046,0.667,0.0863,,,,,
JVASP-101150,MnGaRh2,-0.41447,0.0,na,0.0415,,,,,
JVASP-100472,K2NaYBr6,-1.83707,4.121,na,0.0376,,,,,
JVASP-100323,Y3Mn3Ga2Si,-0.32772,0.0,na,0.1697,,,,,
JVASP-99963,Mg5MnSb4,-0.27044,0.0,na,0.0887,,,,,
JVASP-57036,Sr2CoCl2O2,-2.27739,0.0,0.0,0.0441,,,,,
JVASP-101097,TiNi,-0.16291,0.0,na,0.2702,,,,,
JVASP-100645,Nb6PtAu,-0.24403,0.0,na,0.0047,,,,,
JVASP-99586,Co3Pt,0.03832,0.0,na,0.121,,,,,
JVASP-96774,K2Mo2O7,-2.2802,3.37,na,0.0,,,,,
JVASP-100141,Ac2CdGe,-0.45971,0.0,na,0.0,,,,,
JVASP-102093,Rb2LiYI6,-1.4688,2.967,na,0.024,,,,,
JVASP-92729,ThSi3Os,-0.60826,0.0,na,0.0,,,,,
JVASP-2526,KMgSb,-0.67588,1.403,1.967,0.0,,,,,
JVASP-103284,Na2Zr2O5,-2.90234,2.326,na,0.2004,,,,,
JVASP-48347,V3O5F,-2.62529,0.0,na,0.0211,,,,,
JVASP-100229,Th3In,-0.16725,0.0,na,0.009,,,,,
JVASP-100934,Ba2In2O5,-2.10641,0.0,na,0.1309,,,,,
JVASP-100366,NaYZrS4,-1.83871,1.108,1.525,0.0488,,,,,
JVASP-101451,SmZn2Ga2,-0.48485,0.0,na,0.0,,,,,
JVASP-100536,TiB2W,-0.88555,0.0,0.0,0.0399,,,,,
JVASP-16201,MgRhF6,-2.40904,0.0,0.203,0.0,,,,,
JVASP-100860,Li2VN2,-0.89301,0.0,na,0.1393,,,,,
JVASP-100819,MnHg2Te3,0.05523,0.0,na,0.1492,,,,,
JVASP-99629,SnGeO3,-1.50294,2.768,3.179,0.1397,,,,,
JVASP-53170,CrIn2S4,-0.62548,0.0,na,0.0333,,,,,
JVASP-100600,Hf3Hg,0.02008,0.0,0.0,0.0507,,,,,
JVASP-99734,AuCl,-0.17579,1.844,2.627,0.0099,,,,,
JVASP-102864,K2LiInF6,-2.93778,5.595,na,0.0,,,,,
JVASP-103033,YUSb2,-0.72012,0.0,0.0,0.0231,,,,,
JVASP-92594,Nd2CdCu2,-0.30963,0.0,na,0.0035,,,,,
JVASP-107800,K2NaLaCl6,-2.16984,4.616,na,0.0837,,,,,
JVASP-102945,HoThRu2,-0.48193,0.0,na,0.0,,,,,
JVASP-100276,K5Bi4,-0.43605,0.0,na,0.011,,,,,
JVASP-2163,RhF3,-1.65651,0.927,na,0.0,,,,,
JVASP-103109,CrIr,-0.14539,0.0,0.0,0.0169,,,,,
JVASP-103206,Rb3AlI6,-1.1315,2.092,na,0.0954,,,,,
JVASP-99498,LaCoSi2,-0.71248,0.0,na,0.0,,,,,
JVASP-12017,NbBr2O,-1.61493,0.767,na,0.0,,,,,
JVASP-99446,PrTh,0.04989,0.0,na,0.0564,,,,,
JVASP-18424,CuO2,-0.18283,0.0,0.0,0.3091,,,,,
JVASP-102151,DyO2,-3.04995,0.0,2.329,0.1294,,,,,
JVASP-42453,Ta2CrNO5,-2.44931,0.157,na,0.071,,,,,
JVASP-94909,Fe2CoSe4,-0.26508,0.0,na,0.0697,,,,,
JVASP-43861,Li2VO2F,-2.603,0.0,na,0.1309,,,,,
JVASP-100473,K2CuBiBr6,-1.05834,0.724,0.997,0.0503,,,,,
JVASP-99773,ErTmMg2,-0.04907,0.0,na,0.0068,,,,,
JVASP-99400,TbTh,0.02308,0.0,na,0.048,,,,,
JVASP-101400,HoMgCd2,-0.3274,0.0,0.0,0.0,,,,,
JVASP-18713,ZrGa2,-0.54689,0.0,na,0.0,,,,,
JVASP-99587,Co2NiN2,0.07461,0.0,na,0.1002,,,,,
JVASP-100324,UCoNiGe2,-0.30112,0.0,na,0.1,,,,,
JVASP-103508,CaNdAlO4,-3.46125,3.173,4.581,0.0166,,,,,
JVASP-3933,TmCl3,-2.34018,4.707,6.17,0.0,,,,,
JVASP-95650,Na4CrO4,-1.88559,0.782,na,0.0,,,,,
JVASP-1936,XeF2,-0.56445,2.302,4.494,0.0,,,,,
JVASP-100820,MnCdS2,-0.57459,0.476,na,0.02,,,,,
JVASP-96775,LaSi2Pt2,-0.98692,0.0,na,0.1185,,,,,
JVASP-100142,Ac2ZnHg,-0.34612,0.0,na,0.0,,,,,
JVASP-99671,SbOF3,-1.95334,1.466,2.719,0.0161,,,,,
JVASP-107802,K3AsI6,-0.9129,2.006,2.645,0.1148,,,,,
JVASP-48297,Li3Co4O8,-1.56663,0.0,na,0.0348,,,,,
JVASP-100180,Ho3Er,0.01671,0.0,na,0.0177,,,,,
JVASP-14571,SmSn3,-0.48085,0.0,na,0.0,,,,,
JVASP-100068,Sr2AsAu,-1.10016,0.571,0.846,0.0001,,,,,
JVASP-100776,RbPaO3,-3.36996,3.373,na,0.0,,,,,
JVASP-103286,NdHoTl2,-0.36976,0.0,na,0.0042,,,,,
JVASP-99321,Tm2S3,-2.23198,2.268,na,0.0,,,,,
JVASP-92688,CoCl2O2,-0.08093,0.0,na,0.5592,,,,,
JVASP-11948,NbCo,-0.01428,0.0,na,0.1846,,,,,
JVASP-100601,HoErHg2,-0.38557,0.0,na,0.0051,,,,,
JVASP-100935,LiMnP,-0.65975,0.0,na,0.0,,,,,
JVASP-92552,Pr2Ni2Sn,-0.54484,0.0,na,0.0,,,,,
JVASP-99872,NdMgAu,-0.69866,0.0,na,0.0,,,,,
JVASP-100230,Sr3Ca,0.01223,0.0,na,0.03,,,,,
JVASP-101453,NdCuGe,-0.64808,0.0,na,0.0,,,,,
JVASP-92730,LaAl3Cu,-0.52738,0.0,na,0.0,,,,,
JVASP-100730,LiNdZn2,-0.3128,0.0,0.0,0.0,,,,,
JVASP-99828,NpScRu2,-0.4763,0.0,na,0.0,,,,,
JVASP-99916,U2CuSi3,-0.1989,0.0,0.0,0.0617,,,,,
JVASP-102205,La2FeAs2RuO2,-1.96353,0.0,na,0.0,,,,,
JVASP-14871,TmTe,-1.20418,0.0,na,0.0314,,,,,
JVASP-103375,Fe2SiNi,-0.23009,0.0,0.0,0.0829,,,,,
JVASP-106318,Yb2TiCuO6,-2.5118,0.0,na,0.1618,,,,,
JVASP-100861,V2SN2,-0.86443,0.0,na,0.2168,,,,,
JVASP-99964,Mg2MnAs2,-0.35899,0.0,na,0.1682,,,,,
JVASP-99219,BHO2,-1.96449,6.34,na,0.0081,,,,,
JVASP-99630,K2YHgBr6,-1.42675,0.0,na,0.1603,,,,,
JVASP-15016,HgPd,-0.01774,0.0,na,0.0139,,,,,
JVASP-50373,TbCeO4,-3.32993,0.214,na,0.0986,,,,,
JVASP-96906,Ba2NdCu3O7,-1.99943,0.0,na,0.0,,,,,
JVASP-14889,RuF3,-1.71168,0.0,na,0.0,,,,,
JVASP-50474,Er2Pt2O7,-2.25683,1.591,1.702,0.0,,,,,
JVASP-107803,K2TlAsI6,-0.7562,0.738,0.808,0.0895,,,,,
JVASP-2658,Rb2Sn2O3,-1.59883,1.18,2.485,0.0,,,,,
JVASP-99499,Zn3FeS4,-0.69823,0.0,na,0.1122,,,,,
JVASP-100277,DyRu3C,-0.23961,0.0,na,0.0,,,,,
JVASP-100418,CeNdAl2O6,-3.52345,0.0,na,0.0043,,,,,
JVASP-102094,TbRb3Cl6,-2.1617,4.737,na,0.0434,,,,,
JVASP-103110,CeLuAl4,-0.44264,0.0,na,0.0387,,,,,
JVASP-19933,CaGa2,-0.53706,0.0,na,0.0427,,,,,
JVASP-103208,Rb2NaGaCl6,-1.70208,2.772,4.65,0.0249,,,,,
JVASP-100537,Ti2HC,-0.72225,0.0,na,0.0,,,,,
JVASP-47635,LiSbTe3O12,-1.14889,1.522,na,0.0166,,,,,
JVASP-99447,LaAlCu4,-0.24178,0.0,na,0.0882,,,,,
JVASP-99544,TmSiRu2C,-0.59415,0.0,0.0,0.0,,,,,
JVASP-99401,NbRh2,-0.34715,0.0,na,0.137,,,,,
JVASP-101151,MnFe4,0.03738,0.0,na,0.0514,,,,,
JVASP-99672,Rb2InAsBr6,-1.08172,0.0,na,0.0541,,,,,
JVASP-100821,Mn3Ni4Sb,-0.01707,0.0,na,0.0878,,,,,
JVASP-2529,NaMgSb,-0.57515,1.172,1.726,0.0,,,,,
JVASP-14945,NdS2,-0.37831,0.0,na,1.548,,,,,
JVASP-99775,Eu2TlSn,-0.51557,0.0,na,0.8874,,,,,
JVASP-17357,MgSbF6,-2.80681,0.0,4.143,0.0088,,,,,
JVASP-52835,H4CN5Cl,-0.05833,3.319,na,0.2626,,,,,
JVASP-100367,NaSm2Se3,-1.81168,0.0,na,0.0,,,,,
JVASP-99736,K2O,-1.15446,0.352,3.962,0.103,,,,,
JVASP-96844,VH4C2O6,-1.25287,1.266,na,0.1018,,,,,
JVASP-100646,Nb6SiSn,-0.19766,0.0,na,0.0728,,,,,
JVASP-100474,Rb2YCuI6,-1.18974,2.064,na,0.0715,,,,,
JVASP-96960,Dy5Sn11,-0.56442,0.0,na,0.0038,,,,,
JVASP-92639,YbGa4,-0.41946,0.0,na,0.0,,,,,
JVASP-100069,Er2ZnAg,-0.37322,0.0,na,0.0093,,,,,
JVASP-102152,Mn3AsN,-0.11496,0.0,na,0.1677,,,,,
JVASP-3936,ThNCl,-2.30638,2.542,3.048,0.0,,,,,
JVASP-57153,FeBiO3,-1.26052,0.0,na,0.1462,,,,,
JVASP-100325,VCu3Te2Se2,-0.34201,0.706,na,0.0011,,,,,
JVASP-100181,Hg,0.25672,0.583,na,0.0,,,,,
JVASP-101211,CoNi2Se4,-0.30701,0.0,na,0.0126,,,,,
JVASP-102946,K3Ge,0.01875,0.0,na,0.0252,,,,,
JVASP-101099,TiAl6Mo,-0.36164,0.0,0.0,0.0,,,,,
JVASP-14718,MgAu,-0.6562,0.0,0.0,0.0,,,,,
JVASP-100993,LiCd2Cu,-0.18565,0.0,na,0.0,,,,,
JVASP-100020,CeY4Rh5,-0.87343,0.0,na,0.0242,,,,,
JVASP-107804,K2RbSbBr6,-1.27187,2.834,na,0.1169,,,,,
JVASP-100731,Lu2CoIr,-0.75339,0.0,na,0.0,,,,,
JVASP-19892,DyPt2,-1.13396,0.0,na,0.0659,,,,,
JVASP-102866,Na3AlCl6,-1.67575,4.154,6.238,0.1265,,,,,
JVASP-97025,CaFeAsF,-1.93973,0.0,0.0,0.0016,,,,,
JVASP-99873,FeAg3F6,-1.44292,0.0,na,0.0637,,,,,
JVASP-28383,CN2,0.6132,4.693,5.949,0.6246,,,,,
JVASP-103035,TmGaAu,-0.79702,0.0,na,0.0,,,,,
JVASP-100602,K3Li,0.08543,0.0,na,0.0921,,,,,
JVASP-101401,HoRh2Pb,-0.57208,0.0,na,0.023,,,,,
JVASP-18592,AgPt3,0.0123,0.0,na,0.0311,,,,,
JVASP-100936,Li2VFeO4,-2.14276,0.0,na,0.0887,,,,,
JVASP-101264,K2SbAu,-0.59506,1.05,1.627,0.0,,,,,
JVASP-4167,VBrO,-1.73356,0.0,na,0.0146,,,,,
JVASP-100863,VNiO3,-1.88352,0.0,na,0.0092,,,,,
JVASP-15659,LaSi2Rh2,-1.02363,0.0,na,0.0,,,,,
JVASP-103512,Ca2ZnGa3,-0.5375,0.0,na,0.0011,,,,,
JVASP-99588,LiCoC2O6,-1.32394,0.0,na,0.1906,,,,,
JVASP-102206,Ho2NiSb4,-0.72549,0.0,na,0.0139,,,,,
JVASP-99323,TbSrO3,-2.98468,0.0,na,0.1694,,,,,
JVASP-99633,KRb2DyCl6,-2.19768,4.935,na,0.0068,,,,,
JVASP-99673,Na2LuCuCl6,-1.63876,1.738,na,0.1672,,,,,
JVASP-99500,Tl4Br3Cl,-0.92788,2.041,na,0.0052,,,,,
JVASP-103379,TmInCo4,-0.18395,0.0,na,0.012,,,,,
JVASP-100777,Nd2Ni2Sn,-0.56462,0.0,0.0,0.0,,,,,
JVASP-100143,AlGaCo2,-0.4316,0.0,0.0,0.0171,,,,,
JVASP-16204,UPSe,-1.03629,0.0,na,0.0,,,,,
JVASP-18447,Te2AuI,-0.09904,0.0,na,0.0,,,,,
JVASP-100231,SrCa3,0.0158,0.0,na,0.0329,,,,,
JVASP-100822,Mn3Ga,0.07186,0.0,na,0.1229,,,,,
JVASP-100278,CeAl2Cu3,-0.27201,0.0,na,0.1046,,,,,
JVASP-1213,Zn3P2,-0.20716,0.305,na,0.0,,,,,
JVASP-100419,CdGeAsP,-0.0766,0.068,na,0.0067,,,,,
JVASP-103209,Rb3AuF6,-2.16576,0.778,na,0.1047,,,,,
JVASP-101152,MnFePd6,-0.14226,0.0,na,0.0,,,,,
JVASP-107806,K2LiLaCl6,-2.19556,4.541,na,0.0635,,,,,
JVASP-99965,TbLiS2,-2.00333,1.921,na,0.0,,,,,
JVASP-100479,KCu2GeS4,-0.54859,0.0,na,0.0615,,,,,
JVASP-92689,LaSi3Os,-0.61088,0.0,na,0.0,,,,,
JVASP-99448,La2NiPt,-0.83681,0.0,na,0.0024,,,,,
JVASP-15500,NdCo2Ge2,-0.59798,0.0,na,0.0,,,,,
JVASP-96907,FeMo3S4,-0.62285,0.0,na,0.105,,,,,
JVASP-99402,NbNi6Mo,-0.21734,0.0,na,0.0,,,,,
JVASP-100994,LiDy3,0.17137,0.0,na,0.1753,,,,,
JVASP-103289,Pm,0.0078,0.0,0.0,0.0,,,,,
JVASP-11949,MgNi,-0.20977,0.0,na,0.0508,,,,,
JVASP-100021,CeAl3Pt,-0.73555,0.0,na,0.0711,,,,,
JVASP-99829,Pa3Al,-0.09662,0.0,na,0.0785,,,,,
JVASP-17897,CaFeF6,-2.81621,0.0,0.0,0.0,,,,,
JVASP-100864,VO2,-2.54915,0.0,na,0.0106,,,,,
JVASP-100647,NaPr2Cl6,-2.19339,0.0,na,0.0338,,,,,
JVASP-3939,ThBrN,-2.12891,2.647,na,0.0,,,,,
JVASP-93814,NdGe5,-0.25434,0.0,na,0.0951,,,,,
JVASP-49796,ZrO2,-3.64248,3.914,4.481,0.0613,,,,,
JVASP-101592,NaCd2Rh,-0.11293,0.0,0.0,0.0,,,,,
JVASP-101212,CeSiNi,-0.75783,0.0,0.0,0.0,,,,,
JVASP-15455,HfNi2Sn,-0.48802,0.0,0.0,0.0591,,,,,
JVASP-106322,V2NiP,-0.40704,0.0,na,0.2173,,,,,
JVASP-103111,CeMnCrSi2,-0.40277,0.0,na,0.0736,,,,,
JVASP-99221,CdH2SeO4,-1.03502,3.903,na,0.0164,,,,,
JVASP-100144,AlFeIr2,-0.46564,0.0,na,0.0267,,,,,
JVASP-107808,K2TlAsBr6,-1.04705,0.919,na,0.0516,,,,,
JVASP-3516,CaBr2,-2.14847,4.55,5.844,0.0286,,,,,
JVASP-100937,HoCuO2,-2.61043,2.627,na,0.0,,,,,
JVASP-99545,Ba2DyMoO6,-3.06668,0.0,na,0.0,,,,,
JVASP-99589,DyFe2O4,-2.14883,0.0,na,0.0759,,,,,
JVASP-100070,FeSnRh2,-0.18808,0.0,na,0.0482,,,,,
JVASP-99674,K3GaBr6,-1.34639,2.145,na,0.093,,,,,
JVASP-100368,NaO2,-0.82444,0.0,0.0,0.0959,,,,,
JVASP-96777,Ni2SnP,-0.38264,0.0,na,0.0,,,,,
JVASP-100539,TbHo,0.01349,0.0,na,0.0151,,,,,
JVASP-99917,TiIn,-0.14414,0.0,na,0.0093,,,,,
JVASP-99501,ThUC2,-0.38403,0.0,na,0.0,,,,,
JVASP-100279,YbInNi4,-0.41355,0.0,na,0.0,,,,,
JVASP-100327,U2AsP,-0.84989,0.0,0.0,0.0217,,,,,
JVASP-15614,NdSnAu,-0.85434,0.0,na,0.0001,,,,,
JVASP-99782,Hg,0.26194,0.0,0.0,0.0,,,,,
JVASP-18846,PrSnAu,-0.85141,0.0,0.0,0.0,,,,,
JVASP-99635,Ac2CuRu,-0.11332,0.0,na,0.0,,,,,
JVASP-96845,Sr5Mn5O13,-2.49134,0.0,na,0.0,,,,,
JVASP-102947,KRbAu2,-0.40356,0.217,0.206,0.0,,,,,
JVASP-18751,NbSnRh,0.35207,0.0,0.0,0.6995,,,,,
JVASP-99737,NaSbS2,-0.75271,0.112,0.116,0.0368,,,,,
JVASP-100182,Hg,0.24278,0.091,na,0.0,,,,,
JVASP-102098,NbRhO4,-1.92314,0.0,na,0.035,,,,,
JVASP-100823,Mn2AlCu3,0.10469,0.0,na,0.2308,,,,,
JVASP-101402,HoTmAl2,-0.41581,0.0,0.0,0.0249,,,,,
JVASP-103517,Ba2PrNbO6,-3.17359,2.929,na,0.0205,,,,,
JVASP-100779,CaBiAu4,-0.44738,0.0,na,0.0,,,,,
JVASP-15157,TbB2Ru3,-0.45204,0.0,na,0.0,,,,,
JVASP-14872,MnPd,0.29583,0.0,na,0.4363,,,,,
JVASP-28508,Te2Mo2WSe2S2,-0.54487,0.232,na,0.1074,,,,,