jid,formula,formation_energy_per_atom,optb88vdw_bandgap,mbj_bandgap,ehull,spacegroup_number,natoms,volume,bulk_modulus_kv,shear_modulus_gv
JVASP-95127,NdAlGe2O7,-2.59902,3.47,na,0.0,,,,,
JVASP-100124,Rb2AlInBr6,-1.3395,1.945,na,0.0905,,,,,
JVASP-50824,Sc2Ti2O7,-3.49212,3.591,4.064,0.0218,,,,,
JVASP-93956,CrO2,-2.09952,0.0,na,0.0117,,,,,
JVASP-99805,LiCa2Pb,-0.44763,0.0,na,0.0311,,,,,
JVASP-93899,ErCuPb,-0.32895,0.0,na,0.069,,,,,
JVASP-96756,NaV6O11,-2.50164,0.0,na,0.0,,,,,
JVASP-93409,NbIrS4,-0.69942,0.0,na,0.0725,,,,,
JVASP-92583,FeN2Cl2,0.98,0.0,na,1.4363,,,,,
JVASP-56242,RbCuCl3,-1.16662,0.0,na,0.0751,,,,,
JVASP-99366,LiNbGeO5,-2.31971,3.381,na,0.0382,,,,,
JVASP-96825,K17Fe5O16,-1.5462,0.516,na,0.0061,,,,,
JVASP-106106,CeYNi4,-0.42829,0.0,na,0.0192,,,,,
JVASP-105730,CaScO3,-2.91604,0.0,na,0.3193,,,,,
JVASP-92777,ThGe2Au2,-0.43297,0.0,na,0.0779,,,,,
JVASP-95598,SbH3C2O4F6,-1.58901,3.29,na,0.0867,,,,,
JVASP-20075,TiIr3,-0.74352,0.0,0.0,0.0169,,,,,
JVASP-96943,Na8Cu5O10,-1.22453,0.0,na,0.0003,,,,,
JVASP-94851,Tm2Mo2C3,-0.43601,0.0,na,0.0,,,,,
JVASP-15708,TlSb,0.1586,0.0,0.0,0.1709,,,,,
JVASP-4062,Ca3PCl3,-2.16317,1.701,2.564,0.0,,,,,
JVASP-13829,CaZrO3,-3.59023,4.048,na,0.0,,,,,
JVASP-99017,TbFeO3,-2.62759,0.0,na,0.0,,,,,
JVASP-15201,YbSi2Ru2,-0.7731,0.0,0.0,0.0,,,,,
JVASP-99853,Y2ZnAu,-0.67273,0.0,na,0.0196,,,,,
JVASP-91379,LiYSn,-0.72438,0.0,na,0.0,,,,,
JVASP-99661,CePt2Au3,-0.61326,0.0,na,0.0117,,,,,
JVASP-99614,Sm2Si3Pt,-0.9198,0.0,0.0,0.0,,,,,
JVASP-95275,Dy5P12Ru19,-0.81087,0.0,na,0.0,,,,,
JVASP-14866,MoP,-0.63155,0.0,na,0.0,,,,,
JVASP-100306,LiSiAg2,0.00895,0.0,na,0.1623,,,,,
JVASP-100256,Tm3In,-0.25181,0.0,na,0.0203,,,,,
JVASP-95439,K2S2NO7,-1.39936,2.1,na,0.21,,,,,
JVASP-93757,Nd2Fe,0.30548,0.0,na,0.3067,,,,,
JVASP-92540,Dy2InNi2,-0.5914,0.0,na,0.0,,,,,
JVASP-1894,NaInS2,-0.98313,1.848,3.191,0.0,,,,,
JVASP-18946,YCu,-0.31403,0.0,na,0.0101,,,,,
JVASP-96886,Y2Si2O7,-3.43115,5.185,na,0.0036,,,,,
JVASP-1819,LiYS2,-2.0375,1.97,2.578,0.0,,,,,
JVASP-100053,NbSeN,-0.71336,0.0,na,0.1629,,,,,
JVASP-21536,BeSO4,-1.92739,7.303,na,0.0,,,,,
JVASP-99717,Rb2SmAgCl6,-1.87709,3.533,na,0.0,,,,,
JVASP-100125,K2RbNdCl6,-2.06706,4.451,na,0.1619,,,,,
JVASP-94369,Mg2Ti,0.20712,0.0,na,0.2071,,,,,
JVASP-42150,Li5Ti2Cu3O10,-2.05963,0.186,na,0.06,,,,,
JVASP-93850,AlNF4,-1.55948,0.0,na,0.9466,,,,,
JVASP-93805,SmSiPt,-1.13892,0.0,na,0.0,,,,,
JVASP-99435,Zn2CuRh,-0.25669,0.0,na,0.0,,,,,
JVASP-93573,CeRu2,-0.29195,0.0,na,0.0,,,,,
JVASP-18953,Mg3Hg,-0.07417,0.0,na,0.0517,,,,,
JVASP-28413,MoS2,-0.92268,1.207,1.471,0.0389,,,,,
JVASP-91455,Ba2Nd2Ti2Cu2O11,-2.87372,0.0,na,0.0105,,,,,
JVASP-99903,Zr3AlN4,-1.67713,0.0,na,0.19,,,,,
JVASP-92584,CuBr2N2,1.61708,0.0,na,1.8198,,,,,
JVASP-97011,Na3AlP3NO9,-2.36673,5.345,na,0.0126,,,,,
JVASP-99948,Nb2CuSe4,-0.71507,0.0,na,0.0301,,,,,
JVASP-95310,CaNb2O6,-2.99259,3.532,na,0.0,,,,,
JVASP-93704,CrBrO,-1.48429,0.352,na,0.0429,,,,,
JVASP-18422,Li3Cu2O4,-1.4092,0.0,na,0.0593,,,,,
JVASP-15497,ScCrC2,-0.42907,0.0,na,0.0,,,,,
JVASP-94896,CaCd2Au4,-0.47826,0.0,na,0.0,,,,,
JVASP-91316,CrSBr,-0.78672,0.18,na,0.0,,,,,
JVASP-100212,Na3Si,0.09081,0.0,0.0,0.1194,,,,,
JVASP-99757,CaPrRh2,-0.56282,0.0,na,0.0045,,,,,
JVASP-94316,MoN2,-0.06145,0.0,na,0.3247,,,,,
JVASP-93304,LaB2Pd2C,-0.56287,0.0,na,0.0489,,,,,
JVASP-94410,Li2Mg,-0.0155,0.0,na,0.0741,,,,,
JVASP-29109,Te4MoW,-0.11942,0.866,na,0.0937,,,,,
JVASP-99147,Pr3BWO9,-3.25163,3.303,na,0.0,,,,,
JVASP-100164,Eu2AgPt,-0.79611,0.0,0.0,0.0,,,,,
JVASP-96758,Ni3P2O8,-1.58615,0.801,na,0.0,,,,,
JVASP-51106,KHfNi,1.83606,0.0,na,2.2113,,,,,
JVASP-99854,Y2ZnHg,-0.40796,0.0,na,0.0177,,,,,
JVASP-95276,Ba3Zr2S7,-2.05261,0.556,na,0.0109,,,,,
JVASP-1381,Li2Se,-1.35568,3.252,na,0.0437,,,,,
JVASP-93410,LaB2Rh3,-0.66437,0.0,na,0.0,,,,,
JVASP-99615,ScPaO4,-3.85514,3.116,na,0.0,,,,,
JVASP-99998,DyAlSi,-0.61076,0.0,na,0.0,,,,,
JVASP-18712,ZrGa,-0.62171,0.0,na,0.0,,,,,
JVASP-99485,KSe3,-0.47766,0.602,1.137,0.0753,,,,,
JVASP-3228,SrLiP,-1.11136,1.396,2.008,0.0,,,,,
JVASP-100257,YErCu2,-0.32326,0.0,na,0.007,,,,,
JVASP-100126,Rb2LiErCl6,-2.2305,5.182,na,0.0,,,,,
JVASP-93900,CaBi2,-0.59272,0.0,na,0.0,,,,,
JVASP-95602,K2SnBr6,-1.23561,1.416,na,0.0054,,,,,
JVASP-106108,CdAg,-0.03885,0.0,na,0.0149,,,,,
JVASP-99718,Rb2AlAuI6,-0.81987,0.0,na,0.1031,,,,,
JVASP-3384,K2NiO2,-1.34001,0.723,na,0.0,,,,,
JVASP-93354,Th2Au,-0.46432,0.0,na,0.0,,,,,
JVASP-94955,SrEr2O4,-3.46272,3.368,na,0.1802,,,,,
JVASP-96826,Bi10Mo3O24,-1.68804,2.601,na,0.0,,,,,
JVASP-14594,U,0.24737,0.0,na,0.0,,,,,
JVASP-14015,YbMnGe,-0.33931,0.0,na,0.1351,,,,,
JVASP-99806,LiEr2Au,-0.44589,0.0,0.0,0.0826,,,,,
JVASP-1186,InAs,-0.21205,0.0,0.398,0.0,,,,,
JVASP-15565,TbSnPd2,-0.86432,0.0,na,0.0,,,,,
JVASP-99367,La2MgTiO6,-3.54837,3.191,na,0.0,,,,,
JVASP-18895,NaZnAs,-0.34586,0.0,0.87,0.103,,,,,
JVASP-106186,LiFe3O6,-1.54475,0.0,na,0.07,,,,,
JVASP-19890,LaPt2,-1.12477,0.0,na,0.0,,,,,
JVASP-99020,PrMnO3,-2.79237,0.0,na,0.0,,,,,
JVASP-4071,GaCuI4,-0.39281,1.517,2.08,0.0,,,,,
JVASP-97012,KScAs2H2O8,-1.8199,3.993,na,0.0,,,,,
JVASP-93251,Nd3PbN,-0.95799,0.0,na,0.0,,,,,
JVASP-92721,BaNi2As2,-0.68644,0.0,na,0.0,,,,,
JVASP-95440,RbTh3F13,-4.2131,7.073,na,0.0,,,,,
JVASP-55000,Rb2NbCl6,-1.72417,0.0,3.298,0.0,,,,,
JVASP-99662,CeGaNi4,-0.4417,0.0,na,0.0762,,,,,
JVASP-44050,Mn3O2F4,-2.20707,0.0,na,0.0,,,,,
JVASP-3822,Na2Pd3O4,-1.00522,0.582,na,0.0,,,,,
JVASP-100307,EuGa4Au3,-0.44432,0.0,na,0.0,,,,,
JVASP-94370,SrMg5,0.10869,0.0,na,0.189,,,,,
JVASP-93758,TmGeAu,-0.81729,0.0,na,0.0,,,,,
JVASP-99384,CaAg3,-0.25152,0.0,0.0,0.0158,,,,,
JVASP-100213,NiPt3,-0.05766,0.0,na,0.0107,,,,,
JVASP-1822,LiDyS2,-2.01066,1.956,na,0.0,,,,,
JVASP-91381,Ca4Fe9O17,-1.833,0.0,na,0.0901,,,,,
JVASP-91317,Ce2BiO2,-2.76249,0.0,na,0.0,,,,,
JVASP-105731,Cd,0.01382,0.0,0.0,0.0,,,,,
JVASP-106031,Mn3VP4,-0.58612,0.0,na,0.039,,,,,
JVASP-15357,ErSi2Cu2,-0.53377,0.0,0.0,0.0,,,,,
JVASP-92783,TbGe2Ru2,-0.6221,0.0,na,0.0,,,,,
JVASP-92679,UBRh3,-0.55028,0.0,na,0.0733,,,,,
JVASP-19875,AlOs,-0.42579,0.0,na,0.0115,,,,,
JVASP-93476,Li2VO2F,-2.54004,0.0,na,0.1938,,,,,
JVASP-18749,U2Mo,0.05994,0.0,0.0,0.0599,,,,,
JVASP-99574,RbP2Ir2,-0.64355,0.0,0.0,0.0,,,,,
JVASP-94411,Li2Mg,-0.04632,0.0,na,0.0432,,,,,
JVASP-93851,Na2Cl,-1.1119,0.0,na,0.1832,,,,,
JVASP-100258,YLuRu2,-0.44227,0.0,na,0.0046,,,,,
JVASP-92627,Tm2InNi2,-0.60687,0.0,na,0.0,,,,,
JVASP-99368,ZrGeSb,-0.58915,0.0,na,0.0,,,,,
JVASP-99719,Rb2AgMoBr6,-1.02889,0.728,na,0.0483,,,,,
JVASP-91456,Na2InNiF7,-2.53138,1.252,na,0.0,,,,,
JVASP-96761,PAuCl8,-0.48536,1.705,na,0.0,,,,,
JVASP-99855,Y2RuAu,-0.66082,0.0,na,0.0052,,,,,
JVASP-96944,Ba3MgSi2O8,-3.15573,5.011,na,0.0176,,,,,
JVASP-100054,Ca2PdN2,-0.74184,0.0,na,0.0655,,,,,
JVASP-95133,Re2Cl5O4,-1.08148,0.504,na,0.0216,,,,,
JVASP-100165,Eu2As2O5,-1.89058,0.0,na,0.6473,,,,,
JVASP-93707,ScCo2,-0.40325,0.0,na,0.0,,,,,
JVASP-99949,NaPrS2,-1.93537,2.201,3.108,0.0,,,,,
JVASP-52829,K2ZnH4,-0.31697,4.284,na,0.0,,,,,
JVASP-99532,BaMg,-0.10411,0.0,0.0,0.0473,,,,,
JVASP-92585,SrCo2Si2,-0.5479,0.0,na,0.0,,,,,
JVASP-95312,RbNa3Li12Si4O16,-2.50881,5.106,na,0.0,,,,,
JVASP-14715,SrAu2,-0.83041,0.0,na,0.0,,,,,
JVASP-100127,Rb2LiMoI6,-0.92132,1.035,na,0.0086,,,,,
JVASP-96827,Sr2NiSe2Cl2O6,-1.73198,1.107,na,0.0,,,,,
JVASP-99807,LiLaO3,-2.24741,0.0,na,0.2634,,,,,
JVASP-99149,CrBiO3,-1.74433,0.69,na,0.0,,,,,
JVASP-15992,Zr3Cu4Si2,-0.5086,0.0,na,0.0,,,,,
JVASP-99436,Tm2InHg,-0.39816,0.0,0.0,0.0181,,,,,
JVASP-99904,YAlFe,-0.3333,0.0,0.0,0.0129,,,,,
JVASP-94956,Ni4N3,0.316,0.0,na,0.339,,,,,
JVASP-99758,CaPm3,0.08407,0.0,na,0.0883,,,,,
JVASP-43210,Li2Mn2SbO6,-1.76326,0.49,na,0.1921,,,,,
JVASP-51149,SrCrRh2,0.4991,0.0,na,0.753,,,,,
JVASP-96887,NaGeAu,-0.34307,0.0,0.0,0.0,,,,,
JVASP-99486,Ag3Cl,0.02021,0.0,na,0.256,,,,,
JVASP-94897,UGa5Pt,-0.41322,0.0,na,0.0,,,,,
JVASP-14822,Tl,0.0,0.0,0.0,0.0,,,,,
JVASP-2181,As2Os,-0.19168,0.614,na,0.0,,,,,
JVASP-19932,WN,-0.22494,0.0,na,0.5207,,,,,
JVASP-95442,CuC2S2O6F6,-1.2939,0.0,na,0.1541,,,,,
JVASP-100214,NdLu3,0.01349,0.0,na,0.0135,,,,,
JVASP-93411,PNO,-1.159,5.252,na,0.0025,,,,,
JVASP-93355,NdCo2,-0.07745,0.0,na,0.0114,,,,,
JVASP-16156,LiAg2Ge,-0.15368,0.0,na,0.0182,,,,,
JVASP-92790,EuGe2Ru2,-1.39772,0.0,na,0.0,,,,,
JVASP-92542,SrIn2Hg2,-0.24077,0.0,na,0.0712,,,,,
JVASP-1183,InP,-0.22434,0.331,1.387,0.0,,,,,
JVASP-91318,LaBrO,-3.20599,4.02,na,0.0,,,,,
JVASP-15657,TaAlNi2,-0.46955,0.0,0.0,0.0105,,,,,
JVASP-95278,Nd2CN2O2,-2.23125,3.752,5.503,0.0,,,,,
JVASP-99720,Na2LiSmCl6,-1.94103,3.951,na,0.1213,,,,,
JVASP-93759,ScCu4Sn,-0.20242,0.0,na,0.0784,,,,,
JVASP-48344,Co6O5F7,-1.4987,0.0,na,0.0351,,,,,
JVASP-106033,Mn2NiSn,0.13717,0.0,na,0.2371,,,,,
JVASP-106111,CdPbS2,-0.55357,0.0,0.0,0.1096,,,,,
JVASP-105733,CdHgPd2,-0.20413,0.0,na,0.0288,,,,,
JVASP-93957,NbO2,-2.59471,0.0,na,0.0265,,,,,
JVASP-28570,Te2W3Se2S2,-0.42683,0.331,na,0.2233,,,,,
JVASP-15232,CeSi2Ru2,-0.81031,0.0,0.0,0.0,,,,,
JVASP-99024,Na6Fe2C4SO16,-1.67062,0.092,na,0.0168,,,,,
JVASP-14977,BaPd5,-0.37065,0.0,na,0.0,,,,,
JVASP-99999,Eu2Si4Pd3Au,-0.81537,0.0,na,0.0,,,,,
JVASP-93852,ErCu4Au,-0.37884,0.0,na,0.0002,,,,,
JVASP-1924,InBr,-0.75547,1.556,1.643,0.0168,,,,,
JVASP-94412,LiMg,-0.01795,0.0,na,0.0964,,,,,
JVASP-99856,Y3Er,0.00219,0.0,na,0.0032,,,,,
JVASP-93252,Mn3InC,0.05329,0.0,na,0.1318,,,,,
JVASP-57551,Rb2CoF4,-2.50073,0.0,na,0.0,,,,,
JVASP-94317,CrN2,-0.18791,0.0,na,0.277,,,,,
JVASP-100128,Rb2NaScBr6,-1.82853,3.067,na,0.0,,,,,
JVASP-106187,CaMn3O4,-1.78433,0.0,na,0.1884,,,,,
JVASP-93902,CaNiGe,-0.59953,0.0,na,0.0,,,,,
JVASP-93305,TbCo2B2C,-0.49542,0.0,na,0.0,,,,,
JVASP-43212,Li5Cr2Co3O10,-1.85013,0.0,na,0.07,,,,,
JVASP-15613,PrFe2Si2,-0.60565,0.0,na,0.0,,,,,
JVASP-99437,Yb3Tm,0.11253,0.0,na,0.1126,,,,,
JVASP-18792,Ti2Sn,-0.31885,0.008,na,0.0,,,,,
JVASP-56304,TlCoCl3,-0.79508,0.0,0.0,0.0,,,,,
JVASP-100167,GaBi3,0.11741,0.0,na,0.1174,,,,,
JVASP-94853,TaMn2B4,-0.52173,0.0,na,0.0,,,,,
JVASP-96828,H10C3IN,-0.18582,4.725,na,0.0824,,,,,
JVASP-100308,CrFeCoSi,-0.22939,0.0,0.0,0.0694,,,,,
JVASP-93807,NbP2,-0.69788,0.0,na,0.0,,,,,
JVASP-15452,PrSi2Rh2,-1.01818,0.0,0.0,0.0,,,,,
JVASP-43223,Cr3Fe2Sb3O16,-1.54353,0.005,na,0.1662,,,,,
JVASP-99809,LiPmGa2,-0.47545,0.0,na,0.0,,,,,
JVASP-18845,Hf6CoBi2,-0.24714,0.0,na,0.0,,,,,
JVASP-15276,YMn2Si2,-0.57648,0.0,na,0.0,,,,,
JVASP-14888,ThSb2,-0.80789,0.0,na,0.0,,,,,
JVASP-99616,MnSi2Ni,-0.34991,0.0,0.0,0.0295,,,,,
JVASP-20098,TiRh3,-0.63707,0.0,0.0,0.0084,,,,,
JVASP-99487,CePrHg2,-0.26244,0.0,na,0.0219,,,,,
JVASP-48294,LiMnP2O7,-2.1458,1.131,na,0.0939,,,,,
JVASP-92680,U2RhC2,-0.3965,0.0,na,0.0,,,,,
JVASP-94371,MgTi5,0.06652,0.0,na,0.0665,,,,,
JVASP-22733,RbF2,-1.82894,0.0,0.0,0.2124,,,,,
JVASP-1870,LiVO2,-2.42721,0.0,0.0,0.0783,,,,,
JVASP-93356,ZrCo2,-0.36538,0.0,na,0.0,,,,,
JVASP-93477,FeOF,-1.5927,0.0,na,0.2482,,,,,
JVASP-92722,VPbO3,-2.07358,0.0,na,0.0343,,,,,
JVASP-18879,CoReO4,-1.48249,0.0,na,0.0,,,,,
JVASP-100215,NdZr,0.20579,0.0,na,0.2058,,,,,
JVASP-99905,Y2Mn3Fe,0.04577,0.0,na,0.0908,,,,,
JVASP-91382,FeCuO2,-1.10907,0.0,0.0,0.0085,,,,,
JVASP-92628,CaFe2As2,-0.57088,0.0,na,0.0,,,,,
JVASP-96762,Li3AsS3,-1.04492,2.328,na,0.0126,,,,,
JVASP-99576,ZnHgTe2,-0.17931,0.0,0.673,0.0551,,,,,
JVASP-100055,CrF6,-2.08982,1.73,2.074,0.0,,,,,
JVASP-100259,Y3In,-0.28597,0.0,na,0.0218,,,,,
JVASP-95603,KSiHO3,-2.28478,5.052,na,0.0,,,,,
JVASP-3447,PtPbF6,-1.88221,1.949,2.236,0.0,,,,,
JVASP-14934,CrCuSe2,-0.16144,0.0,na,0.2545,,,,,
JVASP-105595,K2ScInCl6,-1.83666,2.252,na,0.0623,,,,,
JVASP-99951,Na2PrO3,-2.18685,0.0,na,0.1172,,,,,
JVASP-16198,VP2,-0.60259,0.0,0.0,0.0,,,,,
JVASP-93708,LiFeAs,-0.47,0.0,na,0.0,,,,,
JVASP-101369,Mn2SiP4O14,-2.20677,2.128,na,0.0143,,,,,
JVASP-99663,Ca2IrPtO6,-1.86248,0.0,na,0.0044,,,,,
JVASP-92586,MnCl2O2,-0.60473,0.0,na,0.4782,,,,,
JVASP-94957,Ni4O3,-0.48892,0.0,na,0.1645,,,,,
JVASP-28381,PdCl2,-0.48306,0.561,0.502,0.0,,,,,
JVASP-95445,KEuPdO3,-2.19383,0.757,na,0.0,,,,,
JVASP-100000,Dy2Si3Ni,-0.66917,0.0,na,0.1281,,,,,
JVASP-99759,CaEu3,0.06843,0.0,0.0,0.0729,,,,,
JVASP-91457,NaNbO2F,-2.56944,0.0,na,0.1782,,,,,
JVASP-94319,CeSe2,-0.89935,1.095,na,0.8177,,,,,
JVASP-100129,Rb3RuF6,-2.49491,0.0,na,0.0,,,,,
JVASP-93574,TbGe5,-0.21885,0.0,na,0.1154,,,,,
JVASP-93903,YbBiAu,-0.77043,0.0,na,0.0005,,,,,
JVASP-3825,ErSCl,-2.29765,2.844,3.939,0.0,,,,,
JVASP-2014,RbH,-0.28885,2.971,5.073,0.0,,,,,
JVASP-43243,LiCoPO4,-1.94218,0.02,0.004,0.0474,,,,,
JVASP-93761,Mg2Si,-0.01117,0.0,na,0.2023,,,,,
JVASP-95607,Sr2Mg3H10,-0.45541,3.163,na,0.0038,,,,,
JVASP-97013,LiAlSiH2O5,-2.39109,4.995,na,0.0058,,,,,
JVASP-93412,Ag2S,-0.07408,1.086,na,0.0016,,,,,
JVASP-100309,Ba4Pt,-0.18458,0.0,na,0.1611,,,,,
JVASP-15825,ZrSiRu,-0.8824,0.0,na,0.0,,,,,
JVASP-99810,Lu3Cd,-0.09289,0.0,na,0.0679,,,,,
JVASP-95144,Y5Bi3,-0.76757,0.0,na,0.0,,,,,
JVASP-95313,Nb2P3O12,-2.43603,0.0,na,0.0,,,,,
JVASP-93854,YbAlGa,-0.48008,0.0,na,0.0553,,,,,
JVASP-13745,CaSi,-0.60457,0.0,na,0.0,,,,,
JVASP-1825,LiHoS2,-2.01622,1.993,2.728,0.0,,,,,
JVASP-106112,Ce2CoSi3,-0.62333,0.0,na,0.121,,,,,
JVASP-16027,BaCd2Sb2,-0.56695,0.0,0.357,0.0,,,,,
JVASP-15014,LaB6,-0.58382,0.0,na,0.0,,,,,
JVASP-14943,PrTe,-1.47741,0.0,0.75,0.0,,,,,
JVASP-99721,Na2TlGaF6,-2.4589,3.525,5.477,0.2308,,,,,
JVASP-99438,TmFe2SiC,-0.58932,0.0,na,0.0,,,,,
JVASP-99857,YbZn3,-0.31028,0.0,na,0.0495,,,,,
JVASP-100217,PaTi3,0.04309,0.0,na,0.0658,,,,,
JVASP-93478,CrIrO4,-1.51487,0.0,na,0.0152,,,,,
JVASP-15277,CaAl2Ge2,-0.4854,0.0,na,0.0,,,,,
JVASP-94413,LiMg2,-0.03898,0.0,na,0.0437,,,,,
JVASP-99534,Ga3Hg,0.15613,0.0,na,0.1561,,,,,
JVASP-28830,TeW2S3,-0.79396,0.296,0.274,0.0,,,,,
JVASP-105597,TbK2AuCl6,-1.69411,2.038,na,0.1289,,,,,
JVASP-18590,MgAg3,-0.16856,0.0,na,0.0123,,,,,
JVASP-99907,UAlAu,-0.33805,0.0,na,0.0,,,,,
JVASP-94372,SrMg2,0.12312,0.0,na,0.2838,,,,,
JVASP-105735,Cr3Pt,-0.02634,0.0,na,0.0564,,,,,
JVASP-94898,V2CrS4,-0.94806,0.0,na,0.0451,,,,,
JVASP-96829,SiNi2P4O14,-2.02901,0.926,na,0.0142,,,,,
JVASP-19891,YCd,-0.39161,0.0,na,0.0,,,,,
JVASP-15153,CaAlSi,-0.46327,0.0,na,0.0065,,,,,
JVASP-14978,UGe3,-0.30159,0.0,na,0.0,,,,,
JVASP-99151,LiFeSe2O6,-1.18511,0.0,na,0.008,,,,,
JVASP-50055,Tl2Ge2O7,-1.31966,0.0,na,0.001,,,,,
JVASP-106034,Mn2Al2Cu,-0.02006,0.0,na,0.1775,,,,,
JVASP-92543,Y2Ni2Sn,-0.64763,0.0,na,0.0,,,,,
JVASP-92794,BaIn4,-0.38969,0.0,na,0.0,,,,,
JVASP-1927,VCl2,-1.20415,1.26,na,0.0,,,,,
JVASP-14823,Sn,0.02319,0.0,0.0,0.0,,,,,
JVASP-18793,Zr3Sn,-0.35445,0.0,na,0.0227,,,,,
JVASP-4074,PI2,-0.05037,1.594,2.394,0.0,,,,,
JVASP-93253,LaScO3,-3.62342,2.789,na,0.1435,,,,,
JVASP-93959,VO2,-2.55132,0.0,na,0.0084,,,,,
JVASP-91383,TiSn6F16,-2.66352,2.452,na,0.0,,,,,
JVASP-99027,WSCl4,-0.92114,1.696,2.293,0.0,,,,,
JVASP-96946,BaLi2Ti6O14,-3.18841,2.896,na,0.0,,,,,
JVASP-94960,HgB6,0.42219,0.0,na,0.4222,,,,,
JVASP-92587,CoB2Mo2,-0.45639,0.0,na,0.0,,,,,
JVASP-99386,LiTl2Pd,-0.23376,0.0,0.0,0.0246,,,,,
JVASP-93607,UCu4Pd,-0.09335,0.0,na,0.0325,,,,,
JVASP-16200,SrRhF6,-2.60059,0.0,0.0,0.0,,,,,
JVASP-15993,USiS,-0.45658,0.0,0.0,0.5483,,,,,
JVASP-43277,Li3V4FeO12,-2.36371,0.0,na,0.0419,,,,,
JVASP-99489,In3Pd,-0.05513,0.0,0.0,0.2152,,,,,
JVASP-93306,NpF5,-3.42796,0.0,na,0.0,,,,,
JVASP-96888,Na2Cu3Si4O12,-2.13065,0.001,na,0.0501,,,,,
JVASP-91321,BaYCo2O5,-2.24682,0.0,na,0.0799,,,,,
JVASP-99811,TbLiIn2,-0.41565,0.0,na,0.0143,,,,,
JVASP-93360,ScAl2,-0.50182,0.0,na,0.0,,,,,
JVASP-43291,Fe3CoP4O16,-1.81629,0.421,na,0.0186,,,,,
JVASP-92723,Be3N2,-1.22753,3.048,na,0.0203,,,,,
JVASP-5368,TiBr4,-1.21691,2.52,2.786,0.0,,,,,
JVASP-100056,ZnWF6,-2.48406,0.0,na,0.0077,,,,,
JVASP-92631,CdBr2N2,1.5486,0.161,na,2.0859,,,,,
JVASP-94320,CeSe2,-0.46391,0.0,na,1.2531,,,,,
JVASP-100168,Ga3Sn,0.06793,0.0,na,0.0679,,,,,
JVASP-100260,YbAlAg2,-0.35261,0.0,0.0,0.0066,,,,,
JVASP-100218,Pm2CuPd,-0.51534,0.0,na,0.0,,,,,
JVASP-54760,LiHO,-1.64467,4.351,na,0.0217,,,,,
JVASP-43849,LiMnF3,-2.69584,2.554,na,0.0215,,,,,
JVASP-106188,VOF3,-2.62339,2.05,2.26,0.1171,,,,,
JVASP-99579,Mo2SeS3,-0.88154,0.794,0.876,0.0075,,,,,
JVASP-99952,MnNiSnPd,-0.17136,0.0,na,0.1073,,,,,
JVASP-94854,V2CoS4,-0.91839,0.0,na,0.0,,,,,
JVASP-101370,SiO2,-2.84645,5.469,na,0.0548,,,,,
JVASP-16230,NbNiB,-0.53996,0.0,0.0,0.0037,,,,,
JVASP-93709,BaAgBi,-0.4727,0.0,na,0.1514,,,,,
JVASP-99858,YbAgAu2,-0.6818,0.0,na,0.0126,,,,,
JVASP-99760,CrAg3,0.29597,0.0,na,0.296,,,,,
JVASP-93479,CrGaO4,-1.86631,0.225,na,0.064,,,,,
JVASP-99722,Rb2GaHgF6,-2.47684,0.0,na,0.0832,,,,,
JVASP-100001,DyAlCo4,-0.28163,0.0,na,0.0624,,,,,
JVASP-100460,Sr2FeWO6,-2.62698,0.574,na,0.0218,,,,,
JVASP-106113,Ce2CuGe3,-0.59352,0.0,na,0.0134,,,,,
JVASP-95145,CdI2,-0.58105,2.178,na,0.0004,,,,,
JVASP-18666,PrGaCo2,-0.18671,0.0,na,0.1372,,,,,
JVASP-3930,K5CuSb2,-0.46208,0.976,1.881,0.0,,,,,
JVASP-99617,Mg3InAg4,-0.20863,0.0,0.0,0.0028,,,,,
JVASP-105599,K2YAgBr6,-1.55492,3.257,na,0.0515,,,,,
JVASP-94373,SrMg2,0.01986,0.0,na,0.1805,,,,,
JVASP-95448,Na2SrAl4Si4O16,-3.07173,4.943,na,0.0,,,,,
JVASP-100405,Dy2Al3Fe,-0.42019,0.0,na,0.0168,,,,,
JVASP-99439,TbMgAu,-0.72954,0.0,na,0.0,,,,,
JVASP-1873,NaFeO2,-1.5919,0.0,0.006,0.0,,,,,
JVASP-94899,CoSi2Se4,-0.09074,0.0,na,0.2884,,,,,
JVASP-94961,AlO3F3,-0.76694,0.479,na,1.384,,,,,
JVASP-95315,Ba2ZnGe2S6O,-1.37031,2.027,na,0.0,,,,,
JVASP-14671,Zr5Te4,-0.84739,0.0,0.0,0.0,,,,,
JVASP-92796,La2O3,-2.79167,0.839,na,0.9273,,,,,
JVASP-95609,Na7AlH2C4O12F4,-2.10251,5.3,na,0.0,,,,,
JVASP-99812,Lu2TlIn,-0.32263,0.0,na,0.0,,,,,
JVASP-96891,ZnAs2,-0.13415,0.214,na,0.0,,,,,
JVASP-50608,Mg2TiO4,-3.14741,3.37,3.925,0.0126,,,,,
JVASP-94855,Pr2CrSe4,-1.42726,0.0,na,0.0733,,,,,
JVASP-14936,LiGaGe,-0.29538,0.0,na,0.0,,,,,
JVASP-3450,TiPbO3,-2.51665,1.813,1.876,0.0,,,,,
JVASP-43293,Li5Ti6FeO16,-2.84627,1.116,na,0.0435,,,,,
JVASP-2328,NbCu3Se4,-0.49463,1.344,1.374,0.0,,,,,
JVASP-100130,Sr2TaAlO6,-3.30547,1.027,na,0.0,,,,,
JVASP-60641,Nb3I8,-0.55067,0.116,na,0.0,,,,,
JVASP-93413,SrUO4,-3.46612,2.183,na,0.0,,,,,
JVASP-100356,RbLiZnS2,-1.27127,2.626,4.044,0.0,,,,,
JVASP-92681,Ho2AlNi2,-0.61423,0.0,na,0.0066,,,,,
JVASP-100310,Ag3SbTe4,0.09788,0.0,na,0.1578,,,,,
JVASP-100520,Er2Ge2Ru,-0.79402,0.0,na,0.0098,,,,,
JVASP-91458,SiO2,-2.79952,5.632,na,0.1018,,,,,
JVASP-2226,Pr2SO2,-3.26281,2.975,4.426,0.0,,,,,
JVASP-1828,LiErS2,-2.02125,2.04,2.773,0.0,,,,,
JVASP-28382,PrCoP,-0.88692,0.0,na,0.1927,,,,,
JVASP-99953,MoPt3,-0.17804,0.0,na,0.1014,,,,,
JVASP-93855,Zr2Ir,-0.72068,0.0,na,0.0331,,,,,
JVASP-99308,Ca3Ga2Ge3O12,-2.425,3.145,na,0.0,,,,,
JVASP-93254,Ca3As2,-0.85309,0.141,na,0.36,,,,,
JVASP-99859,Zr3Ta,0.13572,0.0,na,0.1357,,,,,
JVASP-99761,DyLu3,0.00161,0.0,na,0.0028,,,,,
JVASP-99723,Rb2TaHgF6,-2.64514,0.0,na,0.273,,,,,
JVASP-100169,GaCu3,-0.06405,0.0,na,0.009,,,,,
JVASP-99030,RbSF5,-2.0857,4.662,na,0.0,,,,,
JVASP-96763,Er10Ru10C19,-0.33192,0.0,na,0.0,,,,,
JVASP-55156,Fe3RhN,-0.10539,0.0,0.0,0.0159,,,,,
JVASP-93615,Th2Pd,-0.53517,0.0,na,0.0,,,,,
JVASP-99619,La2MnFeSe2O3,-2.07261,0.0,na,0.0,,,,,
JVASP-7148,Al,3.30739,0.0,na,0.0,,,,,
JVASP-100462,LaFeO3,-2.62978,0.0,na,0.0435,,,,,
JVASP-96892,RbLaS2,-2.07326,2.516,na,0.0,,,,,
JVASP-15994,USbTe,-0.56968,0.0,0.0,0.0,,,,,
JVASP-106117,YbCaAl4,-0.40372,0.0,na,0.0012,,,,,
JVASP-91387,Fe3BO5,-1.58206,0.0,na,0.0626,,,,,
JVASP-14824,In,0.0,0.0,0.0,0.0,,,,,
JVASP-100002,Eu2Al3Ag,-0.48637,0.0,na,0.0,,,,,
JVASP-52272,LiAg5F12,-1.3934,0.0,na,0.0381,,,,,
JVASP-4750,PrGe2,-0.63025,0.0,0.0,0.0,,,,,
JVASP-14867,ThNi2,-0.5007,0.0,na,0.0,,,,,
JVASP-92588,SrSi3Ni,-0.43924,0.0,na,0.0,,,,,
JVASP-99908,VCrN2,-0.84158,0.0,0.0,0.1616,,,,,
JVASP-99388,Mg5Ag,-0.07065,0.0,na,0.0268,,,,,
JVASP-105604,K2TlCuF6,-2.25327,0.0,na,0.0433,,,,,
JVASP-95454,Pr3S3N,-2.06684,1.119,na,0.0,,,,,
JVASP-93960,KMnP,-0.45726,0.0,na,0.0,,,,,
JVASP-95146,CdI2,-0.58098,2.178,na,0.0005,,,,,
JVASP-99440,YFe2SiC,-0.58494,0.0,na,0.0,,,,,
JVASP-18625,VAu2,0.00031,0.0,na,0.0224,,,,,
JVASP-5194,SbSeI,-0.33721,1.363,1.98,0.0,,,,,
JVASP-43297,Li2V3FeO8,-2.27784,0.0,na,0.0943,,,,,
JVASP-53306,TiSiRh,-0.90442,0.0,0.0,0.0,,,,,
JVASP-92797,LaBPd3,-0.56677,0.0,na,0.1693,,,,,
JVASP-99813,Lu2GaOs,-0.51006,0.0,na,0.0,,,,,
JVASP-101371,TaP4S6Cl5,-0.63504,2.023,na,0.0033,,,,,
JVASP-99664,Na3AlSiTe4,-0.56071,0.82,1.055,0.1112,,,,,
JVASP-2331,TaCu3Se4,-0.4929,1.587,na,0.0,,,,,
JVASP-93480,Li2CrO3,-2.19451,0.0,na,0.0781,,,,,
JVASP-18497,NdSi2Ru,-0.77396,0.0,na,0.0,,,,,