jid,formula,formation_energy_per_atom,optb88vdw_bandgap,mbj_bandgap,ehull,spacegroup_number,natoms,volume,bulk_modulus_kv,shear_modulus_gv
JVASP-69533,Ca4TaBe,1.15387,0.0,na,1.232,,,,,
JVASP-71193,CaBeCd,-0.01382,0.0,na,0.3067,,,,,
JVASP-15679,YbNi2B2C,-0.52174,0.0,0.0,0.0,,,,,
JVASP-105624,K2RbAuF6,-2.11102,0.714,na,0.1822,,,,,
JVASP-70838,Be2TcPb,0.54026,0.0,na,0.7045,,,,,
JVASP-71607,MgBeCu2,0.03668,0.0,0.0,0.196,,,,,
JVASP-72072,BeGe2Pt,0.19176,0.0,na,0.5562,,,,,
JVASP-72332,YBePt2,-0.70871,0.0,na,0.2915,,,,,
JVASP-92516,CeAlO3,-3.48824,0.0,na,0.0076,,,,,
JVASP-70101,BeHgGe4,0.72028,0.0,na,0.7203,,,,,
JVASP-18467,K2MoCl6,-1.49096,0.0,0.0,0.0,,,,,
JVASP-94140,BaMg6Ni,0.05018,0.0,na,0.2028,,,,,
JVASP-71345,CaTiBe2,0.12769,0.0,na,0.3047,,,,,
JVASP-70866,MgBeP2,-0.12168,0.0,na,0.4473,,,,,
JVASP-74432,YBeCr4,0.46631,0.0,na,0.5187,,,,,
JVASP-71989,BeCu2Ru,0.02616,0.0,na,0.1611,,,,,
JVASP-71727,BeSiIr2,-0.20579,0.0,0.0,0.3657,,,,,
JVASP-71456,BeVSe,0.16269,0.0,na,0.7829,,,,,
JVASP-70626,Be2ZnP,0.33721,0.0,na,0.4666,,,,,
JVASP-63902,Ba4CrW,1.49566,0.0,na,1.5885,,,,,
JVASP-70972,Ti2BeMo,-0.0005,0.0,0.0,0.135,,,,,
JVASP-93722,CeMg2,0.10783,0.0,na,0.1274,,,,,
JVASP-94762,Mg6AlMo,0.14024,0.0,na,0.2096,,,,,
JVASP-92899,Mg6SbMo,0.09884,0.0,na,0.2335,,,,,
JVASP-71272,TaBeW,0.20275,0.0,na,0.5584,,,,,
JVASP-71379,BeTe2Ru,0.1178,0.0,na,0.4536,,,,,
JVASP-93819,DyCuPb,-0.35616,0.0,na,0.0619,,,,,
JVASP-71151,BeCr4Pd,0.28791,0.0,na,0.4747,,,,,
JVASP-99052,HoNi2B2,-0.58217,0.0,na,0.0,,,,,
JVASP-91476,NaI3O8,-0.62531,3.094,na,0.0,,,,,
JVASP-70711,SrBe2Ni,0.27935,0.0,na,0.537,,,,,
JVASP-5839,AlSiTe3,-0.27184,1.206,1.742,0.0079,,,,,
JVASP-69715,MgBe2V,0.31471,0.0,0.0,0.4664,,,,,
JVASP-71221,BeBiPt,-0.17179,0.0,0.0,0.1915,,,,,
JVASP-49961,Cu3OF5,-1.39654,0.0,na,0.0497,,,,,
JVASP-18491,Sc2NCl2,-2.14748,0.0,na,0.0105,,,,,
JVASP-70017,Be2CuCl,0.14678,0.0,na,0.7884,,,,,
JVASP-69415,ZrBe2Se,0.03479,0.0,na,0.8138,,,,,
JVASP-71014,Sc2BeRh,-0.41032,0.0,0.0,0.1879,,,,,
JVASP-93188,LiMg6Mo,0.13359,0.0,na,0.1646,,,,,
JVASP-71489,MgBePb2,0.28213,0.0,na,0.328,,,,,
JVASP-70264,NaBe2Tc,0.67983,0.0,0.0,0.8472,,,,,
JVASP-71575,Be2NbV,0.0346,0.0,na,0.2232,,,,,
JVASP-71944,BeCo2Se,0.17429,0.0,na,0.6452,,,,,
JVASP-71531,HfTiBe2,-0.09513,0.0,na,0.0796,,,,,
JVASP-71415,CaBe2Tc,0.06756,0.0,na,0.236,,,,,
JVASP-93658,CeSiNi4,-0.5698,0.0,na,0.0,,,,,
JVASP-70332,SrBe2Hg,0.44509,0.0,na,0.7002,,,,,
JVASP-16190,NdGaO3,-1.37145,0.0,na,1.4936,,,,,
JVASP-74311,SrBeBi2,0.00665,0.0,na,0.4901,,,,,
JVASP-74384,K2BeTl,0.41231,0.0,0.0,0.4932,,,,,
JVASP-92269,Ca2CoN2,-0.83609,0.0,na,0.0,,,,,
JVASP-70556,Be2InPb,0.68868,0.0,na,0.6928,,,,,
JVASP-70793,NaBeSi2,0.40915,0.0,na,0.4328,,,,,
JVASP-74218,Be2RuW,-0.14877,0.0,0.0,0.2603,,,,,
JVASP-92599,MnNF3,-0.94353,0.0,na,1.0862,,,,,
JVASP-85547,CaUO4,-3.49558,2.323,2.308,0.0004,,,,,
JVASP-93367,MnSn2,0.0718,0.0,na,0.0718,,,,,
JVASP-94093,Mg6CdNi,-0.01921,0.0,na,0.1114,,,,,
JVASP-52803,NaCaFe2Si4O12,-2.56964,0.0,na,0.0028,,,,,
JVASP-96498,CaMn7O12,-1.98455,0.0,na,0.01,,,,,
JVASP-105757,GaPd3,-0.41104,0.0,na,0.0507,,,,,
JVASP-15397,MnCo2Si,-0.34799,0.0,0.0,0.0,,,,,
JVASP-87187,RbFeP2O7,-2.14447,0.955,na,0.0,,,,,
JVASP-74433,BeCoW,0.0881,0.0,na,0.4844,,,,,
JVASP-70170,Be2FeIr,-0.20434,0.0,0.0,0.1478,,,,,
JVASP-71608,K2Be2Si,0.54446,0.0,na,0.5489,,,,,
JVASP-70418,Be2NbOs,0.01785,0.0,0.0,0.2395,,,,,
JVASP-3696,BaLiH3,-0.6177,2.444,3.537,0.0,,,,,
JVASP-71081,BeMoSe2,-0.10258,0.0,na,0.6144,,,,,
JVASP-94338,PuPt5,-0.29836,0.0,na,0.0,,,,,
JVASP-70937,BeFeOs2,-0.02682,0.0,na,0.0745,,,,,
JVASP-72077,Ta2BeTl,0.42099,0.0,na,0.5288,,,,,
JVASP-93493,UTe2,-0.69305,0.0,na,0.0008,,,,,
JVASP-91019,Ba2LiMg,1.39639,0.0,na,1.4871,,,,,
JVASP-71346,MgBe2Ni,-0.05996,0.0,0.0,0.1977,,,,,
JVASP-70756,Ta2BeRu,-0.16667,0.0,0.0,0.1108,,,,,
JVASP-71042,BeCuSi2,0.31702,0.0,na,0.374,,,,,
JVASP-69796,NaMgBe2,0.35068,0.0,na,0.362,,,,,
JVASP-69716,MnBe2In,0.31431,0.0,na,0.492,,,,,
JVASP-71194,Be2FeTc,-0.02659,0.0,na,0.1751,,,,,
JVASP-70867,KBeRh2,0.17037,0.0,na,0.4721,,,,,
JVASP-71416,K2BeFe,0.60195,0.0,na,0.7076,,,,,
JVASP-74354,Be2NiGe,0.02475,0.0,na,0.2824,,,,,
JVASP-92847,BaMg6Cr,0.24004,0.0,na,0.3186,,,,,
JVASP-60637,V2O5,-2.38061,1.843,2.259,0.022,,,,,
JVASP-71222,YMgBe2,0.21473,0.0,na,0.2673,,,,,
JVASP-95039,TbSnGe,-0.6513,0.0,na,0.0,,,,,
JVASP-71490,KBePt,-0.26834,0.0,na,0.019,,,,,
JVASP-92452,CoO2,-0.99136,0.0,na,0.0755,,,,,
JVASP-19887,BaZn,-0.27165,0.0,na,0.0301,,,,,
JVASP-71576,Be2InPt,-0.10567,0.0,na,0.3948,,,,,
JVASP-71886,BeZnFe2,0.00165,0.0,na,0.1187,,,,,
JVASP-48920,LiV2OF5,-2.94332,0.349,na,0.029,,,,,
JVASP-106044,Li3Ag3Ge2,-0.1853,0.0,na,0.0639,,,,,
JVASP-70340,BeIrW,-0.13967,0.0,na,0.3149,,,,,
JVASP-71121,BeFe2Co,-0.07441,0.0,na,0.0854,,,,,
JVASP-71945,LiBeW,0.23233,0.0,na,0.4671,,,,,
JVASP-71458,Be2GeP,0.48603,0.0,na,0.6542,,,,,
JVASP-71664,NaZrBe,0.53033,0.0,na,0.6305,,,,,
JVASP-74385,Be2SbMo,0.32881,0.0,na,0.5497,,,,,
JVASP-70794,KBeRe2,0.52858,0.0,na,0.6651,,,,,
JVASP-74475,Be2TcPt,-0.34262,0.0,na,0.0711,,,,,
JVASP-70973,Be2InOs,0.24081,0.0,na,0.2421,,,,,
JVASP-70558,Be2BiBr,0.66115,0.0,na,1.062,,,,,
JVASP-93431,UMn2,-0.07634,0.0,na,0.0,,,,,
JVASP-70265,Be2FeIr,-0.35216,0.0,0.0,0.0,,,,,
JVASP-71015,Be2PdW,-0.17691,0.0,0.0,0.2845,,,,,
JVASP-70627,NaBeHg,0.2952,0.0,0.0,0.4136,,,,,
JVASP-74178,Be2NiPb,0.48762,0.0,0.0,0.7453,,,,,
JVASP-2151,UF5,-3.62056,0.845,4.045,0.0,,,,,
JVASP-70474,ZrTaBe2,0.03322,0.0,0.0,0.2267,,,,,
JVASP-70419,ZrBe2Pb,0.28788,0.0,na,0.5024,,,,,
JVASP-105827,NbRu3,-0.12114,0.0,na,0.001,,,,,
JVASP-71533,BeSn2P,0.20858,0.0,na,0.3529,,,,,
JVASP-72333,BeCd2Pt,-0.00684,0.0,na,0.3076,,,,,
JVASP-70900,Mn2BeHg,0.31445,0.0,0.0,0.4026,,,,,
JVASP-85446,EuMg3Ge3,-0.40557,0.0,na,0.0732,,,,,
JVASP-69798,BeSnSb,0.2093,0.0,na,0.2162,,,,,
JVASP-71308,CaBe2Tc,0.06756,0.0,na,0.236,,,,,
JVASP-71782,TiBeFe2,-0.23141,0.0,0.0,0.1085,,,,,
JVASP-95478,Ba3ZrRu2O9,-2.55363,0.0,na,0.012,,,,,
JVASP-94280,Mn2Sb,0.12501,0.0,na,0.125,,,,,
JVASP-72079,Mg2BePt,-0.38949,0.0,na,0.2493,,,,,
JVASP-74262,Be2CrCu,0.20046,0.0,0.0,0.3575,,,,,
JVASP-69534,Be2NbOs,0.01836,0.0,0.0,0.2401,,,,,
JVASP-71380,BeGaTe2,0.33893,0.0,na,0.7256,,,,,
JVASP-71273,BeCrSb2,0.34599,0.0,na,0.4245,,,,,
JVASP-13825,Zr2AlC,-0.72286,0.0,na,0.0046,,,,,
JVASP-69630,MnBeP,0.10787,0.0,0.0,0.5094,,,,,
JVASP-71195,MgBeRe2,0.04465,0.0,0.0,0.179,,,,,
JVASP-15785,CrP2,-0.39428,0.0,0.0,0.0,,,,,
JVASP-63903,Ba4HfSb,0.55983,0.0,0.0,1.0403,,,,,
JVASP-71043,MnBePd2,-0.09715,0.0,na,0.272,,,,,
JVASP-70341,LiTaBe2,0.12658,0.0,na,0.3203,,,,,
JVASP-94377,YMg,0.01912,0.0,na,0.1239,,,,,
JVASP-18443,NbPS,-0.87584,0.0,0.0,0.0498,,,,,
JVASP-71889,Mn2BeSb,0.2829,0.0,na,0.3711,,,,,
JVASP-70839,Ta2BeCo,-0.10627,0.0,na,0.1694,,,,,
JVASP-71831,TiBeRh2,-0.60985,0.0,0.0,0.1835,,,,,
JVASP-74355,TaBe2Br,0.35139,0.0,na,0.8992,,,,,
JVASP-71152,Mg2BeIn,0.27262,0.0,na,0.3558,,,,,
JVASP-70712,Be2IrOs,-0.30305,0.0,na,0.0063,,,,,
JVASP-93917,TbNi4Au,-0.42419,0.0,na,0.0,,,,,
JVASP-94238,Mg6FeW,0.22978,0.0,na,0.2998,,,,,
JVASP-70172,BeTcRh,-0.02208,0.0,0.0,0.3773,,,,,
JVASP-70105,TaBe2Fe,0.01281,0.0,0.0,0.2824,,,,,
JVASP-71082,BeSi2Pb,0.51963,0.0,na,0.522,,,,,
JVASP-14169,ErCuGe,-0.70399,0.0,na,0.0,,,,,
JVASP-92387,TlIO3,-0.42852,0.077,na,0.2012,,,,,
JVASP-76206,LiNd2Si2,-0.59331,0.0,na,0.0051,,,,,
JVASP-71417,Na2BeIr,-0.07942,0.0,na,0.0809,,,,,
JVASP-71665,TiBe2Cd,0.18003,0.0,na,0.3646,,,,,
JVASP-74386,Be2NiPt,-0.5872,0.0,na,0.0442,,,,,
JVASP-70477,Be2TeW,0.44141,0.0,na,0.8288,,,,,
JVASP-71534,Sr2BeIr,-0.05344,0.0,na,0.2274,,,,,
JVASP-93134,LaMg6Nb,0.17471,0.0,na,0.2404,,,,,
JVASP-86367,NiS2,-0.3411,0.0,na,0.018,,,,,
JVASP-106125,Be4SiNi,-0.06398,0.0,na,0.1246,,,,,
JVASP-70975,TaBe2Zn,0.20859,0.0,na,0.4238,,,,,
JVASP-91416,Mn2O3,-1.76745,0.0,na,0.0,,,,,
JVASP-71223,HfMgBe2,0.08546,0.0,0.0,0.2523,,,,,
JVASP-72353,BeNb2Sn,0.07167,0.0,na,0.2579,,,,,
JVASP-70560,LiBe2Nb,0.12721,0.0,na,0.316,,,,,
JVASP-71946,Be2InBr,0.68488,0.0,na,1.087,,,,,
JVASP-71459,Be2TcCl,0.1413,0.0,na,0.8242,,,,,
JVASP-74219,LiCa2Be,0.32284,0.0,na,0.3683,,,,,
JVASP-71310,MgBe2Re,0.11436,0.0,na,0.3831,,,,,
JVASP-71347,SrTiBe,0.75534,0.0,na,0.8705,,,,,
JVASP-71381,BeReBi,0.82982,0.0,na,1.009,,,,,
JVASP-42640,NiS2,-0.33313,0.0,na,0.026,,,,,
JVASP-105894,HoPRu2C,-0.68379,0.0,na,0.0017,,,,,
JVASP-74263,LaBe2Co,0.45396,0.0,na,0.7012,,,,,
JVASP-70420,Be2ZnCu,0.02704,0.0,na,0.1492,,,,,
JVASP-63904,Ba4SnGe,0.23707,0.0,na,0.8698,,,,,
JVASP-91257,BaDyCo4O7,-1.79929,0.0,na,0.1202,,,,,
JVASP-71492,BeNiSb2,0.05587,0.0,na,0.2896,,,,,
JVASP-74476,BeCrCo,0.0868,0.0,na,0.2975,,,,,
JVASP-94142,Mg6CoB,0.26913,0.0,na,0.3594,,,,,
JVASP-18583,TiAgHg2,0.23424,0.0,0.0,0.2713,,,,,
JVASP-69801,LiBe2Zn,0.06472,0.0,na,0.1913,,,,,
JVASP-53976,CO2,-1.30661,6.713,9.3,0.0113,,,,,
JVASP-15312,TbZrSb,-0.80959,0.0,na,0.0,,,,,
JVASP-71016,KBe2Tl,1.02304,0.0,na,1.1018,,,,,
JVASP-92807,Y2InNi2,-0.59913,0.0,na,0.0,,,,,
JVASP-71122,BeCuBi,0.36054,0.0,na,0.4334,,,,,
JVASP-105695,Li2FeCoO4,-1.64848,0.0,na,0.0946,,,,,
JVASP-93323,Ca2Mg,0.039,0.0,na,0.122,,,,,
JVASP-22601,Rb2MnF6,-2.6487,0.0,0.0,0.1972,,,,,
JVASP-95339,LaGa3Pd2,-0.73714,0.0,na,0.0062,,,,,
JVASP-95186,CuSbPbS3,-0.41574,0.691,1.044,0.0145,,,,,
JVASP-42876,AcH3,-0.62979,0.925,1.722,0.0,,,,,
JVASP-91334,Cu4Bi5S10,-0.35534,0.0,na,0.0085,,,,,
JVASP-69631,YBe2Re,0.29507,0.0,na,0.5638,,,,,
JVASP-71609,BeGa2Ru,-0.10061,0.0,0.0,0.2449,,,,,
JVASP-71577,BeNbSn2,0.19448,0.0,na,0.3491,,,,,
JVASP-71274,NaBe2Se,0.39459,0.0,na,1.0607,,,,,
JVASP-71196,BeNbP2,0.13492,0.0,na,0.7226,,,,,
JVASP-70901,BeCdIr2,-0.01348,0.0,0.0,0.1432,,,,,
JVASP-71044,Be2NbCu,0.16065,0.0,na,0.3492,,,,,
JVASP-85550,RbCdH2I3O,-0.99033,2.469,na,0.0,,,,,
JVASP-74434,ZrBe2Cu,-0.02672,0.0,0.0,0.1784,,,,,
JVASP-93662,SmCdNi4,-0.35814,0.0,na,0.0,,,,,
JVASP-74312,HfBe2Ni,-0.12863,0.0,0.0,0.3072,,,,,
JVASP-94763,NaMg6Al,0.03829,0.0,na,0.0606,,,,,
JVASP-93723,TbSiNi4,-0.60387,0.0,na,0.0,,,,,
JVASP-99055,RbPO3,-2.37281,5.576,na,0.0,,,,,
JVASP-94867,Sm4Bi2O,-1.37245,0.0,na,0.0693,,,,,
JVASP-93189,LiMg6B,0.1617,0.0,na,0.2291,,,,,
JVASP-15192,TaAlCo2,-0.46922,0.0,0.0,0.0,,,,,
JVASP-15649,MnCuSb,0.1876,0.0,na,0.1876,,,,,
JVASP-74356,Mg2BeW,0.57831,0.0,na,0.7541,,,,,
JVASP-94094,Mg6VMo,0.24299,0.0,na,0.2756,,,,,
JVASP-18916,TiC,-0.91993,0.0,na,0.0,,,,,
JVASP-69720,Be2NiSn,0.19694,0.0,na,0.4546,,,,,
JVASP-94339,ZrTi2,0.17487,0.0,na,0.1749,,,,,
JVASP-70976,MgTa2Be,0.1874,0.0,0.0,0.2953,,,,,
JVASP-70714,BeSnGe4,0.6316,0.0,na,0.6316,,,,,
JVASP-71083,BeCrHg2,0.59548,0.0,na,0.674,,,,,
JVASP-96500,Na2WO2F4,-2.81465,3.967,na,0.0,,,,,
JVASP-105758,ErTmCu2,-0.33915,0.0,na,0.001,,,,,
JVASP-70868,MgBeSe2,-0.79993,0.566,1.604,0.345,,,,,
JVASP-70938,NaBePd2,-0.16627,0.0,0.0,0.2059,,,,,
JVASP-14638,YbCo2,-0.16505,0.0,0.0,0.0,,,,,
JVASP-70757,NaZr2Be,0.29479,0.0,0.0,0.3699,,,,,
JVASP-70176,Be2PBr,0.4615,0.0,na,0.9914,,,,,
JVASP-70479,Be2TcRh,-0.28497,0.0,na,0.0967,,,,,
JVASP-63905,Ba4NaOs,1.07862,0.0,na,1.0965,,,,,
JVASP-95674,Li8CoO6,-1.87872,0.531,na,0.0869,,,,,
JVASP-74180,BeTlIn,0.45458,0.0,0.0,0.4563,,,,,
JVASP-72375,BeFe2Te,0.40834,0.0,na,0.6217,,,,,
JVASP-70798,Be2ZnBi,0.73201,0.0,na,0.732,,,,,
JVASP-44017,Fe6O7F5,-1.65558,0.0,0.0,0.1163,,,,,
JVASP-71349,BeNbPb2,0.33307,0.0,0.0,0.4274,,,,,
JVASP-71275,BeSbSe,-0.07618,0.0,na,0.544,,,,,
JVASP-92600,KMoO3,-2.29671,0.0,na,0.0002,,,,,
JVASP-93868,TiH2,-0.30102,0.0,na,0.2038,,,,,
JVASP-94418,NaAlSi4,0.32587,0.0,na,0.402,,,,,
JVASP-70631,KBe2Co,0.51873,0.0,na,0.7681,,,,,
JVASP-71460,BeTe2Br,0.23818,0.0,na,0.7448,,,,,
JVASP-72084,SrBeMo2,1.08968,0.0,na,1.2001,,,,,
JVASP-76219,Ca5Sb3,-1.07837,0.0,na,0.0,,,,,
JVASP-71045,KBe2Pb,0.91724,0.0,na,1.0028,,,,,
JVASP-74220,ScBe2Cd,0.18277,0.0,na,0.4215,,,,,
JVASP-71493,Be2PdRu,-0.38061,0.0,na,0.0344,,,,,
JVASP-71311,BeHg2Br,0.32353,0.0,na,0.7244,,,,,
JVASP-70268,TaTiBe2,-0.03586,0.0,na,0.1576,,,,,
JVASP-74435,HfBe2Pd,-0.23544,0.0,na,0.2636,,,,,
JVASP-92848,BaMg6Bi,-0.08454,0.0,na,0.1805,,,,,
JVASP-93495,CeSbTe,-1.17709,0.0,na,0.0318,,,,,
JVASP-28705,Te4Mo3WSe2S2,-0.39783,0.134,na,0.1515,,,,,
JVASP-70902,BeGe2Bi,0.40454,0.0,na,0.4045,,,,,
JVASP-71197,SrBe2Se,0.17864,0.0,na,1.2807,,,,,
JVASP-69419,Be2MoP,-0.18486,0.0,na,0.161,,,,,
JVASP-15083,US2,-1.55586,0.0,0.0,0.0171,,,,,
JVASP-44301,Li2CoOF3,-2.36348,0.558,na,0.0952,,,,,
JVASP-74570,BeRhBr2,0.64916,0.0,na,1.4508,,,,,
JVASP-74516,Ca2BeCu,0.09444,0.0,na,0.2535,,,,,
JVASP-93820,Mg2Ni,-0.05062,0.0,na,0.1902,,,,,
JVASP-48458,Mn3OF5,-2.28814,0.0,na,0.0,,,,,
JVASP-105975,Tm2InAg,-0.41757,0.0,na,0.0,,,,,
JVASP-92900,BaMg6B,0.22588,0.0,na,0.3663,,,,,
JVASP-71535,BeCuSn2,0.19072,0.0,na,0.2527,,,,,
JVASP-71990,MnBeFe2,-0.00521,0.0,0.0,0.111,,,,,
JVASP-91056,TaSiTc2,-0.1919,0.0,na,0.2525,,,,,
JVASP-71017,BeRu2Pt,-0.24142,0.0,na,0.0129,,,,,
JVASP-71418,BeCdSi,0.4798,0.0,na,0.4847,,,,,
JVASP-15603,CeGe2Rh2,-0.81814,0.0,na,0.0003,,,,,
JVASP-96044,CdWO4,-2.09302,2.894,na,0.0,,,,,
JVASP-70481,ZrBePt,-0.75258,0.0,na,0.0929,,,,,
JVASP-70869,KCaBe2,0.75926,0.0,na,0.8323,,,,,
JVASP-93265,NdB4,0.16429,0.0,na,0.7492,,,,,
JVASP-71729,BeCr2Se,0.38553,0.0,0.0,0.8507,,,,,
JVASP-70343,Be2ZnIr,-0.2915,0.0,na,0.0897,,,,,
JVASP-92270,MgCd,0.08212,0.0,na,0.1988,,,,,
JVASP-72377,K2BeMo,1.44277,0.0,na,1.5575,,,,,
JVASP-69632,Be2PdRh,-0.4213,0.0,0.0,0.2218,,,,,
JVASP-70939,K4YBe,0.89206,0.0,na,0.8978,,,,,
JVASP-71084,ScBeSn2,0.03499,0.0,na,0.3927,,,,,
JVASP-70273,NaHfBe,0.57345,0.0,0.0,0.6887,,,,,
JVASP-52369,LiSnPO4,-2.0869,3.186,na,0.032,,,,,
JVASP-74181,K2TaBe,1.53865,0.0,na,1.6434,,,,,
JVASP-71153,Ca4BeNb,1.05574,0.0,0.0,1.1298,,,,,
JVASP-93770,Th2Tl,-0.09466,0.0,na,0.0171,,,,,
JVASP-71350,Be2VPb,0.48248,0.0,na,0.6342,,,,,
JVASP-74657,KBeIn2,0.46567,0.0,na,0.536,,,,,
JVASP-70903,SrTaBe2,0.62454,0.0,na,0.818,,,,,
JVASP-74477,Be2CdBr,0.65766,0.0,na,1.061,,,,,
JVASP-69423,ZrBe2Bi,0.15717,0.0,na,0.4491,,,,,
JVASP-74612,BeZnFe,0.11292,0.0,na,0.2678,,,,,
JVASP-71312,HfBe2Ir,-0.3814,0.0,na,0.2375,,,,,
JVASP-74357,Be2NbSi,-0.15285,0.0,0.0,0.1656,,,,,
JVASP-92645,U2RuC2,-0.3332,0.0,na,0.0,,,,,
JVASP-71784,ScBeCr2,0.35487,0.0,0.0,0.4334,,,,,
JVASP-70106,NaBe2Cl,0.53428,0.0,0.0,1.5025,,,,,
JVASP-71382,BeCuPb2,0.26295,0.0,na,0.3176,,,,,
JVASP-71612,Be2SiSe,0.63412,0.0,na,1.1005,,,,,
JVASP-70758,BePtPb,-0.15561,0.0,na,0.1777,,,,,
JVASP-85711,LiAlPHO5,-2.50626,6.194,na,0.0,,,,,
JVASP-74264,ScBe2Te,0.18454,0.0,0.0,0.8272,,,,,
JVASP-92558,SmSi3Ir,-0.74262,0.0,na,0.0,,,,,
JVASP-95041,SiNiSb,0.08021,0.0,na,0.365,,,,,
JVASP-71198,Sc2BeNb,0.07352,0.0,na,0.1678,,,,,
JVASP-74571,Be2PPd,-0.0693,0.0,na,0.3127,,,,,
JVASP-63906,BaZrBr,0.58504,0.0,na,1.7625,,,,,
JVASP-70840,HfBeSi2,0.28676,0.0,0.0,0.7465,,,,,
JVASP-71494,TiBe2Pb,0.36495,0.0,0.0,0.5442,,,,,
JVASP-71224,NaBeNi2,0.14085,0.0,na,0.3777,,,,,
JVASP-74517,Be2CrW,0.14163,0.0,na,0.4379,,,,,
JVASP-71891,BeCr2Pt,-0.14496,0.0,0.0,0.0779,,,,,
JVASP-42800,Na3NiO2,-1.19847,0.0,0.272,0.0871,,,,,
JVASP-70181,CaBe2Ga,0.18023,0.0,0.0,0.5044,,,,,
JVASP-3504,NaInTe2,-0.59533,0.84,1.553,0.0,,,,,
JVASP-71461,Be2CuRu,-0.17276,0.0,na,0.0971,,,,,
JVASP-71276,Na2BeHg,0.27568,0.0,na,0.3906,,,,,
JVASP-105625,K2NaMoI6,-0.87399,1.137,na,0.0323,,,,,
JVASP-14584,CrPt3,-0.23145,0.0,0.0,0.0166,,,,,
JVASP-69633,Be2TlCl,0.74367,0.0,na,1.3033,,,,,
JVASP-70344,SrBe2Cu,0.34584,0.0,na,0.4844,,,,,
JVASP-70799,BeZn2Pb,0.36585,0.0,na,0.3659,,,,,
JVASP-70717,KBe2Sn,0.42739,0.0,na,0.5625,,,,,
JVASP-92388,OsO4,-1.0031,3.072,na,0.0045,,,,,
JVASP-70870,CaBePt2,-0.49032,0.0,na,0.3739,,,,,
JVASP-71832,Be2InPt2,-0.52662,0.0,0.0,0.0,,,,,
JVASP-71123,Ti2BeFe,-0.15697,0.0,na,0.1664,,,,,
JVASP-71421,MnBeGa,0.25276,0.0,na,0.4384,,,,,
JVASP-94240,Mg6GaFe,0.09934,0.0,na,0.145,,,,,
JVASP-87188,Fe2PO5,-1.6692,0.0,na,0.0698,,,,,
JVASP-14926,VSb,0.01578,0.0,na,0.1233,,,,,
JVASP-71578,Y2BeW,0.11379,0.0,0.0,0.2896,,,,,
JVASP-74658,BePtPb2,0.39246,0.0,na,0.656,,,,,
JVASP-71668,BeCo2W,-0.14621,0.0,0.0,0.1885,,,,,
JVASP-70632,LiBe2Pb,0.36088,0.0,na,0.5075,,,,,
JVASP-63908,Ba4CoGe,0.87962,0.0,na,1.1716,,,,,
JVASP-92453,NiO2,-0.31897,0.0,na,0.5138,,,,,
JVASP-71313,Be2VSn,0.34087,0.0,na,0.4926,,,,,
JVASP-92316,MgZn3,-0.05047,0.0,na,0.0515,,,,,
JVASP-74388,BeCr4In,0.49447,0.0,0.0,0.5477,,,,,
JVASP-92980,CoCu2SiS4,-0.44414,0.0,0.0,0.0802,,,,,
JVASP-71156,Be2InRe,0.35173,0.0,na,0.6218,,,,,
JVASP-16119,NpSi2Os2,-0.4636,0.0,na,0.0,,,,,
JVASP-92695,CeAl3Au,-0.61969,0.0,na,0.0,,,,,
JVASP-53095,NaLiZnP2O7,-2.28872,4.554,na,0.0,,,,,
JVASP-28638,Te4Mo3WS4,-0.49373,0.061,na,0.1252,,,,,
JVASP-70422,Be2PW,-0.17646,0.0,0.0,0.1101,,,,,
JVASP-71018,CaBeIn2,0.07247,0.0,na,0.4451,,,,,
JVASP-74313,Na2BePb,0.18733,0.0,0.0,0.3165,,,,,
JVASP-74572,ZrBe2Sn,0.24312,0.0,na,0.5786,,,,,
JVASP-74613,NaSrBe2,0.63386,0.0,0.0,0.679,,,,,
JVASP-70978,Sc2BeIr,-0.45115,0.0,0.0,0.2355,,,,,
JVASP-69429,YBe2Cu,0.10522,0.0,na,0.2685,,,,,
JVASP-70904,Be2CdW,0.24342,0.0,na,0.4584,,,,,
JVASP-71947,TaMn2Be,0.05454,0.0,0.0,0.2946,,,,,
JVASP-71495,BeIn2Br,0.17654,0.0,na,0.58,,,,,
JVASP-70274,CaBe2In,0.22905,0.0,na,0.5458,,,,,
JVASP-3702,CaHCl,-1.65999,3.8,5.036,0.0,,,,,
JVASP-91417,Ba2NdRuO6,-2.60273,0.109,na,0.0025,,,,,
JVASP-71199,BeGeMo2,0.03932,0.0,na,0.2198,,,,,
JVASP-71892,LaYBe2,0.13309,0.0,na,0.1479,,,,,
JVASP-93190,KMg6Cr,0.32926,0.0,na,0.3303,,,,,
JVASP-42848,Pr2IrPd,-0.74779,0.0,na,0.0016,,,,,
JVASP-93135,LaMg6Sb,-0.15749,0.0,na,0.1744,,,,,
JVASP-94967,Ca2TiO4,-3.32935,1.871,na,0.0479,,,,,
JVASP-70760,BeCrPd2,-0.10734,0.0,0.0,0.2618,,,,,
JVASP-92742,InNi3N,-0.12088,0.0,na,0.0,,,,,
JVASP-95480,Rb6Si10O23,-2.72513,4.155,na,0.0262,,,,,
JVASP-71086,BeOsRu2,-0.04286,0.0,na,0.1025,,,,,
JVASP-71462,ScBeSn2,0.06065,0.0,na,0.4184,,,,,
JVASP-70347,Be2CuNi,-0.26107,0.0,na,0.0273,,,,,
JVASP-70940,BeZn2Ga,0.18315,0.0,na,0.1832,,,,,
JVASP-71422,BeTl2Re,0.57041,0.0,0.0,0.7048,,,,,
JVASP-63909,Ba4CoSb,0.62189,0.0,na,1.1043,,,,,
JVASP-71383,Be2InBi,0.69999,0.0,na,0.7013,,,,,
JVASP-91058,ZrScZn2,0.40228,0.0,na,0.7556,,,,,
JVASP-15313,VCoSb,-0.16205,0.0,0.751,0.0224,,,,,
JVASP-74436,BeCoBi2,0.70017,0.0,na,0.8582,,,,,
JVASP-95201,BaNd2Ti3O10,-3.46612,1.961,na,0.0,,,,,
JVASP-105895,Pr2MgPd2,-0.72471,0.0,na,0.0116,,,,,
JVASP-71536,BeCrSn2,0.39225,0.0,na,0.4708,,,,,
JVASP-21206,H,2.50094,2.865,na,0.0,,,,,
JVASP-93324,Mg2Cd,-0.04926,0.0,na,0.0433,,,,,
JVASP-70182,Be2ZnRh,-0.30519,0.0,0.0,0.0803,,,,,
JVASP-71314,Be2WBr,0.35004,0.0,na,0.945,,,,,
JVASP-71046,BeCuRh2,-0.16717,0.0,na,0.1324,,,,,
JVASP-70871,HfBe2Tl,0.23866,0.0,na,0.4055,,,,,
JVASP-69634,TaMnBe2,0.0405,0.0,na,0.3061,,,,,
JVASP-95350,Sn2Bi2O7,-1.63495,2.862,na,0.0,,,,,
JVASP-74358,LiBe2Zn,0.17093,0.0,na,0.2975,,,,,
JVASP-74659,Be2PPd,-0.16837,0.0,na,0.2136,,,,,
JVASP-28377,MoSe2,-0.66579,0.942,1.314,0.0057,,,,,
JVASP-71730,BeFe2Te,0.39658,0.0,0.0,0.6099,,,,,
JVASP-52408,NaCu2H2Se2O10,-0.83685,0.0,na,0.0162,,,,,
JVASP-91258,LuMnO3,-2.92227,0.014,na,0.0,,,,,
JVASP-14639,AlCo,-0.61841,0.0,0.0,0.0,,,,,
JVASP-91478,NaIO3,-1.01351,3.668,4.718,0.0,,,,,
JVASP-74752,LiBeCu4,0.13304,0.0,na,0.2307,,,,,
JVASP-71124,BeCuPd2,-0.26593,0.0,na,0.1079,,,,,
JVASP-74221,TiBe2Nb,0.04709,0.0,0.0,0.2357,,,,,
JVASP-71580,LiBe2Rh,-0.13258,0.0,na,0.2289,,,,,
JVASP-71351,BeTl2In,0.35715,0.0,na,0.3585,,,,,
JVASP-2154,ZnF2,-2.44115,3.632,6.391,0.0,,,,,
JVASP-94764,Mg6NbAl,0.09071,0.0,na,0.1754,,,,,
JVASP-94912,Mn2B4Mo,-0.40426,0.0,na,0.0134,,,,,
JVASP-99237,CaAl2Si2H4O10,-2.51874,5.501,na,-0.0,,,,,
JVASP-99058,NaNbO3,-2.61975,2.336,na,0.0077,,,,,
JVASP-70482,TaBe2Sb,0.36639,0.0,0.0,0.5845,,,,,
JVASP-70979,Be2BiW,0.7436,0.0,na,0.9561,,,,,
JVASP-15786,LiCu2P2,-0.31898,0.0,0.0,0.0,,,,,
JVASP-74615,K2NaBe,0.52582,0.0,na,0.5363,,,,,
JVASP-70905,HfBe2Tc,-0.05083,0.0,na,0.3183,,,,,
JVASP-71785,BeCr2Ge,0.12629,0.0,na,0.2517,,,,,
JVASP-71158,CaMnBe2,0.61526,0.0,na,0.7958,,,,,
JVASP-63910,Ba4GeSb,0.13174,0.0,na,0.9022,,,,,
JVASP-48262,Li2Fe3O6,-1.69715,0.0,na,0.0336,,,,,
JVASP-93432,CaCl2,-2.52777,5.421,na,0.0021,,,,,
JVASP-71463,Sr2BeSb,-0.01277,0.0,na,0.734,,,,,
JVASP-91335,Te6Cl2O11,-1.06549,3.102,na,0.0,,,,,
JVASP-71671,ScBeCr2,0.30974,0.0,0.0,0.3883,,,,,
JVASP-96502,Yb2SO2,-2.22276,0.0,na,0.6717,,,,,
JVASP-71537,ScBeCl,-0.45992,0.138,na,0.6372,,,,,
JVASP-72381,Mg2BePt,-0.3499,0.0,0.0,0.2889,,,,,
JVASP-92850,BaMg6Ga,-0.00752,0.0,na,0.1414,,,,,