jid,formula,formation_energy_per_atom,optb88vdw_bandgap,mbj_bandgap,ehull,spacegroup_number,natoms,volume,bulk_modulus_kv,shear_modulus_gv
JVASP-106659,YO2,-3.00368,0.0,na,0.2155,,,,,
JVASP-103679,TiAl3Ge,-0.16657,0.0,na,0.1522,,,,,
JVASP-104535,Rb3PdF6,-2.3588,0.0,0.193,0.0401,,,,,
JVASP-106831,Ce2Si3,-0.5655,0.0,na,0.0472,,,,,
JVASP-15108,CaNi2Ge2,-0.58036,0.0,na,0.0,,,,,
JVASP-104627,ThIn,-0.35249,0.0,na,0.0,,,,,
JVASP-48540,LiCo2OF3,-1.81264,0.145,na,0.1504,,,,,
JVASP-18429,FeO2,-1.27468,0.0,na,0.1457,,,,,
JVASP-2346,CdGa2S4,-0.74605,2.113,3.706,0.0,,,,,
JVASP-19882,ScPt,-1.29653,0.0,0.0,0.0,,,,,
JVASP-101138,Nb4Pd,-0.133,0.0,na,0.0111,,,,,
JVASP-101033,YbF3,-3.25415,0.0,na,0.0678,,,,,
JVASP-105583,TiO2,-3.08953,2.327,2.944,0.1737,,,,,
JVASP-18851,TbAgSn,-0.6119,0.0,0.0,0.0,,,,,
JVASP-102320,Tm2TeS2,-1.95848,1.777,2.445,0.0033,,,,,
JVASP-105113,Al3Pd,-0.34077,0.0,0.0,0.1542,,,,,
JVASP-16029,ZrCu2P2,-0.67342,0.0,na,0.0,,,,,
JVASP-106454,Rb2InAgF6,-2.51174,1.629,3.62,0.0,,,,,
JVASP-18506,Hf3Te2,-0.58964,0.0,0.0,0.0,,,,,
JVASP-104950,LaFeNi4,-0.25717,0.0,na,0.0257,,,,,
JVASP-102193,MoPd,0.09107,0.0,na,0.1221,,,,,
JVASP-102855,YAgSe2,-1.24123,0.412,0.926,0.0436,,,,,
JVASP-101863,H7C8NO,-0.08785,2.265,na,0.1915,,,,,
JVASP-102416,Rb2NaNdI6,-1.47086,3.054,3.722,0.0,,,,,
JVASP-51157,SiSbOs2,0.91223,0.0,na,1.0614,,,,,
JVASP-101683,TiMoO4,-2.61958,0.0,na,0.0901,,,,,
JVASP-101090,TiNbAlC,-0.64225,0.0,0.0,0.0097,,,,,
JVASP-18802,SrAgBi,-0.65605,0.0,0.0,0.0,,,,,
JVASP-15582,CaSi2Cu2,-0.40711,0.0,na,0.0,,,,,
JVASP-102515,HoPu3,-0.12538,0.0,na,0.2402,,,,,
JVASP-16069,SrP2Rh2,-0.94807,0.0,0.0,0.0,,,,,
JVASP-103733,AlAu4,-0.17355,0.0,na,0.0408,,,,,
JVASP-103633,ThCdCu2,-0.22485,0.0,na,0.0,,,,,
JVASP-15165,CaCo2P2,-0.88346,0.0,0.0,0.0,,,,,
JVASP-103099,Dy2In3Cu,-0.42018,0.0,na,0.0329,,,,,
JVASP-2790,Si3NiP4,-0.25111,0.405,0.745,0.0,,,,,
JVASP-101808,H7C7NO,0.00254,3.363,na,0.2992,,,,,
JVASP-3990,ErSeI,-1.72165,2.194,2.921,0.0,,,,,
JVASP-104571,GaSb3,0.21172,0.0,0.0,0.286,,,,,
JVASP-105418,PrNd,-0.01879,0.0,na,0.0,,,,,
JVASP-2349,KLiTe,-1.17298,2.649,3.889,0.0,,,,,
JVASP-102766,ErSiPd,-0.92514,0.0,0.0,0.0,,,,,
JVASP-103805,H5C6S2N,0.07048,1.137,na,0.1949,,,,,
JVASP-106548,LiAlZn2,-0.18677,0.0,0.0,0.0,,,,,
JVASP-105012,K2NaSbF6,-2.77022,4.135,na,0.0498,,,,,
JVASP-102455,AgPd,-0.06351,0.0,0.0,0.0115,,,,,
JVASP-104536,KRb2LuCl6,-2.22625,4.799,na,0.0,,,,,
JVASP-2065,CaI2,-1.71628,3.446,4.374,0.0,,,,,
JVASP-101743,BaSrSn2O6,-2.39911,0.765,na,0.0187,,,,,
JVASP-105494,HfZn2Ga,-0.34557,0.0,0.0,0.0,,,,,
JVASP-50484,CaY2O4,-3.62771,3.194,4.45,0.0651,,,,,
JVASP-57228,Sr2Mn3Bi2O2,-1.03099,0.0,0.0,0.3137,,,,,
JVASP-15687,Nd2Fe2Si2C,-0.63735,0.0,na,0.0,,,,,
JVASP-101951,CdH6C5O4,-0.59371,3.677,na,0.1199,,,,,
JVASP-105349,YFeNi4,-0.29588,0.0,na,0.0467,,,,,
JVASP-101989,H11C5,-0.1476,6.734,na,0.0342,,,,,
JVASP-101574,Li2InPb,-0.32833,0.0,0.0,0.0,,,,,
JVASP-14993,TbAs,-1.59292,0.0,0.0,0.0,,,,,
JVASP-101259,NaMnO2,-1.78449,0.0,0.0,0.0886,,,,,
JVASP-102707,MoSeS,-0.81167,0.712,0.92,0.0049,,,,,
JVASP-43890,Fe6O5F7,-1.74429,0.0,na,0.1296,,,,,
JVASP-3468,ZnIn2Te4,-0.36001,0.771,1.774,0.0,,,,,
JVASP-106888,Li2MnF4,-2.76967,2.138,na,0.0829,,,,,
JVASP-16131,HoCoC2,-0.44182,0.0,0.0,0.0,,,,,
JVASP-100986,In3Ge,0.11355,0.0,na,0.1175,,,,,
JVASP-102558,SmPd2Pb,-0.68828,0.0,0.0,0.0111,,,,,
JVASP-104725,LiMgIn2,-0.11998,0.0,0.0,0.0994,,,,,
JVASP-50380,ZrSeO,-2.52293,0.796,1.037,0.0374,,,,,
JVASP-105198,Mg2As,-0.42958,0.0,0.0,0.1608,,,,,
JVASP-14610,Mo,0.0,0.0,0.0,0.0,,,,,
JVASP-106497,CaMgCd2,-0.33598,0.0,0.0,0.0,,,,,
JVASP-102658,V2FeTe4,-0.18313,0.0,na,0.0949,,,,,
JVASP-101139,Nb6OsAu,-0.1917,0.0,na,0.0,,,,,
JVASP-102321,TiVN2,-1.53128,0.0,na,0.0797,,,,,
JVASP-103580,Te,0.02841,0.0,0.0,0.0,,,,,
JVASP-106832,Ce3Y,-0.00849,0.0,na,0.0,,,,,
JVASP-15244,ThCo2Ge2,-0.5933,0.0,na,0.0,,,,,
JVASP-18717,ScHg3,-0.05601,0.0,na,0.1152,,,,,
JVASP-102456,BaLa3,0.07117,0.0,na,0.0712,,,,,
JVASP-103680,Th2CoSi3,-0.77076,0.0,na,0.0,,,,,
JVASP-104675,UTiFe,-0.14009,0.0,na,0.1759,,,,,
JVASP-1786,SmCuO2,-2.48686,2.587,2.8,0.0107,,,,,
JVASP-104902,Y2Ge2Ru,-0.8445,0.0,na,0.0,,,,,
JVASP-2796,TlSbF6,-2.34056,3.924,na,0.0,,,,,
JVASP-48382,V4O5F7,-2.7225,0.185,na,0.0758,,,,,
JVASP-15669,LaB2Ir2C,-0.61354,0.0,na,0.0,,,,,
JVASP-106601,Sn3Te,0.06571,0.0,0.0,0.2286,,,,,
JVASP-15031,TbSb,-1.1903,0.0,0.0,0.0,,,,,
JVASP-18562,Fe2CoGe,0.0104,0.0,na,0.1105,,,,,
JVASP-101091,UPt2Au3,-0.32126,0.0,na,0.0888,,,,,
JVASP-101684,TiInNi2,-0.35483,0.0,na,0.033,,,,,
JVASP-102417,Rb2TlAsCl6,-1.32407,1.351,na,0.0007,,,,,
JVASP-15715,ErB2Rh2C,-0.61538,0.0,na,0.0173,,,,,
JVASP-14725,U,-0.0,0.0,0.0,0.0,,,,,
JVASP-103871,SnH24C13O4,-0.29729,4.432,na,0.0994,,,,,
JVASP-104572,ErMg5,-0.01183,0.0,na,0.023,,,,,
JVASP-104537,KRb2TlCl6,-1.52763,2.306,na,0.0067,,,,,
JVASP-101034,Ti3In,-0.12384,0.0,0.0,0.0,,,,,
JVASP-101865,H6C7N2O,-0.15141,2.388,na,0.1427,,,,,
JVASP-103984,CdH18C11O4,-0.35586,3.966,na,0.0742,,,,,
JVASP-102516,LiTm2Ga,-0.32703,0.0,0.0,0.017,,,,,
JVASP-101575,Li2SmAl,-0.24368,0.0,0.0,0.0,,,,,
JVASP-42176,Fe6O11F,-1.46414,0.0,na,0.0315,,,,,
JVASP-101914,ZnH10C7O4,-0.49221,4.803,na,0.1087,,,,,
JVASP-50968,TmCu2O4,-1.90124,0.0,0.0,0.0,,,,,
JVASP-106456,Rb2LiPrF6,-3.46962,6.758,8.853,0.0421,,,,,
JVASP-101260,MnO2,-1.75296,0.652,na,0.052,,,,,
JVASP-106662,YbSr2UO6,-3.37466,2.136,na,0.0855,,,,,
JVASP-104951,La2SbAu3,-0.93621,0.0,na,0.031,,,,,
JVASP-14683,ErSi,-0.79872,0.0,0.0,0.0012,,,,,
JVASP-102322,UCuSi,-0.14206,0.0,na,0.0989,,,,,
JVASP-106775,MnNi3O4,-0.85327,0.0,na,0.2807,,,,,
JVASP-102816,RbCr2S4,-0.88933,0.0,na,0.0369,,,,,
JVASP-16107,CrSi2,-0.20781,0.0,0.0,0.0,,,,,
JVASP-14900,NiMoP,-0.50567,0.0,na,0.0,,,,,
JVASP-15412,NbCo2Sn,-0.10176,0.0,na,0.1509,,,,,
JVASP-104727,LaThCN,-0.99143,0.0,na,0.06,,,,,
JVASP-106947,Dy2TlHg,-0.38313,0.0,na,0.0,,,,,
JVASP-101140,Nd2FeSi3,-0.4881,0.0,na,0.183,,,,,
JVASP-18632,SrCuBi,-0.60014,0.001,na,0.0,,,,,
JVASP-106835,Ce2Si2NiPt,-0.94533,0.0,na,0.0,,,,,
JVASP-105013,Na2ScAgF6,-2.87427,1.87,4.418,0.1778,,,,,
JVASP-107002,TbSbPd,-1.0765,0.0,0.0,0.0,,,,,
JVASP-16132,BaCu2As2,-0.54352,0.0,na,0.0,,,,,
JVASP-102607,YAgGe,-0.71227,0.0,0.0,0.0,,,,,
JVASP-18526,CeSiI,-1.01276,0.0,na,0.0,,,,,
JVASP-102272,AlRh3,-0.47786,0.0,0.0,0.0589,,,,,
JVASP-105419,PtRh,-0.00835,0.0,na,0.0127,,,,,
JVASP-102561,Sr3Er,0.17481,0.0,na,0.1757,,,,,
JVASP-102659,TiVSe4,-0.9374,0.0,na,0.013,,,,,
JVASP-104110,H3C7NO,-0.05793,1.88,na,0.2354,,,,,
JVASP-104783,LaCoO3,-2.50302,0.0,na,0.0004,,,,,
JVASP-102708,MoPd2Rh,-0.09198,0.0,na,0.0299,,,,,
JVASP-105351,V4Os,-0.11661,0.0,na,0.1787,,,,,
JVASP-2068,MgBr2,-1.59558,4.478,6.238,0.0,,,,,
JVASP-103634,TiGeRh2,-0.64555,0.0,na,0.011,,,,,
JVASP-2940,Rb3Sb2Au3,-0.51416,1.141,na,0.0,,,,,
JVASP-15716,Ti,0.06514,0.0,0.0,0.0,,,,,
JVASP-106457,RbTlF3,-2.33167,1.697,na,0.0,,,,,
JVASP-106727,TaNbMo,-0.07289,0.0,na,0.0623,,,,,
JVASP-3993,Sc2CCl2,-1.68234,0.86,1.421,0.0106,,,,,
JVASP-105268,Tl3Ag,0.1116,0.0,na,0.1116,,,,,
JVASP-101092,TiNbN2,-1.48594,0.0,na,0.0829,,,,,
JVASP-102418,RbInCl3,-1.48284,1.181,na,0.0,,,,,
JVASP-15051,Ba2As,-0.92593,0.0,na,0.0591,,,,,
JVASP-4397,P4Se5,-0.01919,1.587,na,0.0207,,,,,
JVASP-102768,Er2SbO2,-2.93245,0.0,0.0,0.0,,,,,
JVASP-104903,Zn3PBr3,-0.69417,1.552,na,0.0,,,,,
JVASP-104628,Yb2CuPd,-0.70023,0.0,0.0,0.0,,,,,
JVASP-2244,Sb2Te2Se,-0.1974,0.028,0.41,0.0,,,,,
JVASP-11997,As,0.02549,0.077,0.649,0.0,,,,,
JVASP-15467,ErSi2Ni2,-0.8145,0.0,0.0,0.0,,,,,
JVASP-104676,TiAlPd2,-0.72445,0.0,na,0.0251,,,,,
JVASP-105584,V2CuO6,-2.0514,0.0,na,0.0049,,,,,
JVASP-104538,Rb2LiTlBr6,-1.29914,0.441,na,0.0,,,,,
JVASP-105199,Mg2IrPd,-0.60308,0.0,na,0.0,,,,,
JVASP-101576,LaNdTl2,-0.45787,0.0,na,0.0,,,,,
JVASP-102457,Ba3Nd,0.12535,0.0,na,0.1253,,,,,
JVASP-2460,NdOF,-4.00709,4.505,6.152,0.0,,,,,
JVASP-101809,H6C8SO,-0.02307,2.58,na,0.232,,,,,
JVASP-101263,WO2F2,-2.55423,0.296,na,0.047,,,,,
JVASP-15367,NbGaCo2,-0.29772,0.0,0.0,0.0,,,,,
JVASP-104952,La2CoSi3,-0.64432,0.0,na,0.0919,,,,,
JVASP-1486,KPrO2,-2.81731,3.654,5.197,0.0,,,,,
JVASP-102517,LiY3,0.17089,0.0,na,0.1711,,,,,
JVASP-103581,SO4,-0.57232,0.0,na,0.2686,,,,,
JVASP-28455,Te2MoW2Se4,-0.38838,0.738,0.905,0.1458,,,,,
JVASP-106602,Sr2CuPt,-0.56671,0.0,na,0.0601,,,,,
JVASP-106499,CaHoCd2,-0.40263,0.0,0.0,0.0,,,,,
JVASP-101035,Y2ZnAg,-0.40107,0.0,0.0,0.0,,,,,
JVASP-15167,USeO,-2.46312,0.0,0.0,0.0,,,,,
JVASP-18600,BeAu,-0.1383,0.0,na,0.0,,,,,
JVASP-106776,Mn4Hg3Au,0.42903,0.0,na,0.4393,,,,,
JVASP-101952,CdH6C5O4,-0.59237,3.476,na,0.1212,,,,,
JVASP-101636,Hf2Ni7,-0.50179,0.0,na,0.0044,,,,,
JVASP-52904,PHN2,-0.38263,4.909,6.215,0.0,,,,,
JVASP-19914,BaB6,-0.45845,0.035,na,0.0,,,,,
JVASP-2943,TaCu3Te4,-0.23916,1.308,1.551,0.0,,,,,
JVASP-101685,Ti2AlGe3,-0.46899,0.0,0.0,0.0,,,,,
JVASP-104573,ErTmRu2,-0.46671,0.0,0.0,0.0,,,,,
JVASP-102769,Er2O3,-3.75435,2.924,4.924,0.1355,,,,,
JVASP-19823,Yb3Ge5,-0.63175,0.0,na,0.0,,,,,
JVASP-14726,NbB2,-0.65103,0.0,0.0,0.0,,,,,
JVASP-105016,K2ScAgBr6,-1.52145,2.743,na,0.0,,,,,
JVASP-106458,K2RbPrCl6,-2.07674,4.283,na,0.1496,,,,,
JVASP-102660,UCuNiGe2,-0.3043,0.0,na,0.0,,,,,
JVASP-105114,Al2OsRh,-0.78066,0.0,0.0,0.0,,,,,
JVASP-104150,H7C3N,-0.098,4.594,na,0.1041,,,,,
JVASP-106664,Sr2MgMoO6,-2.94144,2.036,2.698,0.0,,,,,
JVASP-101744,AlV2,-0.141,0.0,0.0,0.0122,,,,,
JVASP-104728,Li2UBr6,-1.53253,0.0,na,0.0,,,,,
JVASP-14994,CdAg,-0.05048,0.0,0.0,0.0033,,,,,
JVASP-104678,Ti2VTe4,-0.5982,0.0,na,0.0347,,,,,
JVASP-102611,Er6FeBi2,-0.45541,0.0,na,0.0,,,,,
JVASP-102818,LiRuN2,-0.14481,0.0,na,0.1113,,,,,
JVASP-101036,YbZnO3,-1.77054,0.0,na,0.3141,,,,,
JVASP-14611,P,0.05275,0.0,0.0,0.0,,,,,
JVASP-101093,U2MnAl3,-0.13216,0.0,na,0.0,,,,,
JVASP-15328,DySi2Ni,-0.79297,0.0,na,0.0,,,,,
JVASP-12086,ThI4,-1.26145,1.98,na,0.0,,,,,
JVASP-106549,LiHg3,-0.03382,0.0,0.0,0.114,,,,,
JVASP-105498,GaNi2Pt,-0.368,0.0,0.0,0.0,,,,,
JVASP-102273,CaTmIn2,-0.48063,0.0,0.0,0.0211,,,,,
JVASP-102562,SrPdO3,-1.51543,0.0,na,0.0591,,,,,
JVASP-103932,ZnH18C11O4,-0.36313,4.475,na,0.0879,,,,,
JVASP-101810,H6C6SO,-0.06309,3.282,na,0.228,,,,,
JVASP-3018,YbZn2P2,-0.80315,0.814,1.469,0.0,,,,,
JVASP-106890,Li2FeCoO4,-1.73892,0.0,na,0.0041,,,,,
JVASP-12197,SnO2,-1.5912,1.622,3.171,0.2046,,,,,
JVASP-104842,CrH3,0.26066,0.0,na,0.2617,,,,,
JVASP-102419,Rb3YBr6,-1.88741,3.803,na,0.0178,,,,,
JVASP-15801,KHgAs,-0.29717,0.0,0.0,0.0584,,,,,
JVASP-103735,Ag3Sb,0.14125,0.0,na,0.1412,,,,,
JVASP-102711,Mn4Sb3As,0.01725,0.0,na,0.0687,,,,,
JVASP-104539,Rb2TlSbI6,-0.86281,0.742,0.888,0.0471,,,,,
JVASP-105422,PdAu,-0.07532,0.0,0.0,0.0004,,,,,
JVASP-106777,Mn4FeO5,-1.26401,0.0,na,0.0,,,,,
JVASP-19896,VN,-1.13291,0.0,na,0.1839,,,,,
JVASP-101204,CuSi2P3,-0.03701,0.0,0.0,0.0932,,,,,
JVASP-2946,Sr2ZnN2,-0.76338,0.91,1.569,0.0,,,,,
JVASP-101866,H5C8NO2,-0.17021,2.559,na,0.2367,,,,,
JVASP-14684,AgSe,0.12469,0.0,na,0.1734,,,,,
JVASP-18430,FeO2,-1.2728,0.0,0.0,0.1476,,,,,
JVASP-15289,SmSi2Ni2,-0.80104,0.0,0.0,0.0,,,,,
JVASP-2556,CaCd2Sb2,-0.48643,0.068,0.727,0.0,,,,,
JVASP-105585,CoSnF6,-2.27835,0.356,na,0.0,,,,,
JVASP-101038,YbCeMg2,0.02303,0.0,na,0.1195,,,,,
JVASP-15717,Ta,0.24799,0.0,0.0,0.0,,,,,
JVASP-105352,V6GaSn,-0.09148,0.0,na,0.0106,,,,,
JVASP-16908,TiBi2O6,-1.60788,0.0,0.0,0.2807,,,,,
JVASP-106950,Ho2GaOs,-0.46676,0.0,0.0,0.0479,,,,,
JVASP-103806,H6C5SN2,0.05975,2.744,na,0.228,,,,,
JVASP-104953,KBaFe4As4,-0.48299,0.0,na,0.0024,,,,,
JVASP-104784,SrFeO2,-2.18874,0.0,na,0.0222,,,,,
JVASP-102519,Li3Tm,0.18431,0.0,na,0.185,,,,,
JVASP-48541,Li4VO4F,-2.60524,3.752,3.746,0.0799,,,,,
JVASP-103872,SnH10C6O4,-0.46119,4.399,na,0.1559,,,,,
JVASP-14995,Ti3Cu4,-0.1391,0.0,na,0.0001,,,,,
JVASP-106606,SrPtO3,-1.51978,0.0,na,0.148,,,,,
JVASP-50830,Na6MgO4,-1.68671,2.41,na,0.0353,,,,,
JVASP-105202,MgAlAu2,-0.52905,0.0,na,0.0251,,,,,
JVASP-21556,Na5SnAs3,-0.47784,0.468,na,0.0,,,,,
JVASP-103681,TbAlCu4,-0.27231,0.0,0.0,0.0211,,,,,
JVASP-101094,TiCrP2,-0.78283,0.0,na,0.0854,,,,,
JVASP-15511,FeAgS2,-0.23295,0.0,0.0,0.2435,,,,,
JVASP-106836,Ce3Mg2Rh4,-0.68608,0.0,na,0.0,,,,,
JVASP-101746,Al2S3,-1.23237,2.862,3.774,0.0,,,,,
JVASP-104844,Ce2MgIn,-0.17903,0.0,na,0.0404,,,,,
JVASP-54764,U3H2O10,-2.7632,2.131,2.074,0.0161,,,,,
JVASP-106550,LiLaTl2,-0.42167,0.0,na,0.0,,,,,
JVASP-105018,K2HgBiCl6,-1.20168,0.0,na,0.1075,,,,,
JVASP-104904,ZnCu2SnSe3S,-0.43371,0.016,0.198,0.019,,,,,
JVASP-107003,CoNiP,-0.45367,0.0,na,0.0835,,,,,
JVASP-18483,P2Rh3,-0.61806,0.0,na,0.056,,,,,
JVASP-104111,H6C13S4,0.14323,0.586,na,0.2166,,,,,
JVASP-102819,Ba2RuN2,-0.57889,0.072,na,0.0,,,,,
JVASP-101990,H2C,-0.13606,6.506,na,0.0403,,,,,
JVASP-102274,CrGaRh2,-0.34927,0.0,na,0.0,,,,,
JVASP-15583,MnAlAu2,-0.20862,0.0,0.0,0.0427,,,,,
JVASP-101207,CrB4Mo,-0.27186,0.0,na,0.1202,,,,,
JVASP-102420,RbTlCl3,-1.31573,0.669,na,0.0017,,,,,
JVASP-107053,LaTi2TlO6,-2.99433,0.323,na,0.0571,,,,,
JVASP-106459,K2RbYI6,-1.41764,3.02,3.945,0.1228,,,,,
JVASP-103582,CuO2,-0.20634,0.0,na,0.2856,,,,,
JVASP-102564,Ta3W,-0.06034,0.0,na,0.1085,,,,,
JVASP-104679,ThHg,-0.06714,0.0,na,0.0263,,,,,
JVASP-44054,VOF,-2.68184,0.0,0.0,0.0396,,,,,
JVASP-2071,RbBiS2,-0.91252,1.438,2.258,0.0,,,,,
JVASP-105115,AlAgO3,-1.43698,0.0,na,0.3197,,,,,
JVASP-14612,Zr,0.0,0.0,0.0,0.0,,,,,
JVASP-102661,U2Al3Fe,-0.18661,0.0,na,0.0569,,,,,
JVASP-101579,LiAl2Cu,-0.22792,0.0,0.0,0.0171,,,,,
JVASP-104574,ErTm3,-0.00392,0.0,na,0.0,,,,,
JVASP-14901,BaSi2,-0.3873,0.0,na,0.0113,,,,,
JVASP-103636,Tl3Cd,0.03463,0.0,na,0.0371,,,,,
JVASP-105499,Ga2Se3,-0.59236,0.45,1.438,0.0,,,,,
JVASP-106500,YbCaGa2,-0.57029,0.0,0.0,0.0026,,,,,
JVASP-18563,CuNi2Sb,-0.04923,0.0,na,0.0722,,,,,
JVASP-104540,Rb3GdCl6,-2.29005,3.087,na,0.0,,,,,
JVASP-1507,NaHoS2,-2.01402,2.328,3.27,0.0,,,,,
JVASP-51231,TaTiAl,0.74861,0.0,na,1.0308,,,,,
JVASP-15764,Pr3TlC,1.58747,0.0,na,1.8622,,,,,
JVASP-15830,WS2,-0.16589,0.0,0.0,0.8298,,,,,
JVASP-102458,Be3Cu,-0.0911,0.0,na,0.0727,,,,,
JVASP-15052,HoMn2,0.07307,0.0,0.0,0.0909,,,,,
JVASP-101686,Ti4Ru,-0.12957,0.0,na,0.1764,,,,,
JVASP-43151,Li3SiNiO5,-2.12777,0.256,na,0.0918,,,,,
JVASP-105423,PaInO4,-2.91866,1.875,na,0.0,,,,,
JVASP-106778,MgPd3,-0.32597,0.0,na,0.1832,,,,,
JVASP-14727,ZrB,-0.43887,0.0,0.0,0.3175,,,,,
JVASP-102325,SmGa3Pt,-0.72287,0.0,0.0,0.0,,,,,
JVASP-18633,DyBiPt,-1.05331,0.0,0.0,0.0,,,,,
JVASP-15802,CaCu2P2,-0.59329,0.0,na,0.0267,,,,,
JVASP-50487,LiTeHO4,-1.27192,1.544,1.579,0.039,,,,,
JVASP-106665,Ba2ScUO6,-3.55709,0.902,na,0.0,,,,,
JVASP-19837,Mo3Os,-0.00294,0.0,na,0.0,,,,,
JVASP-15413,DyNiC2,-0.41805,0.0,0.0,0.0,,,,,
JVASP-105269,Tm2IrPt,-1.2005,0.0,0.0,0.0,,,,,
JVASP-102771,CuAgTe,0.12467,0.0,0.003,0.1536,,,,,
JVASP-15513,LaMn2Si2,-0.49038,0.0,na,0.0,,,,,
JVASP-101915,ZnH12C8O4,-0.44613,4.461,na,0.1038,,,,,
JVASP-104954,K2Fe2SeS3,-0.83851,0.0,na,0.0213,,,,,
JVASP-51158,TlCuIr,0.52282,0.0,na,0.5228,,,,,
JVASP-16213,MnNbGe,-0.27307,0.0,0.0,0.0067,,,,,
JVASP-13799,CaThBr6,-1.90089,2.298,2.628,0.0512,,,,,
JVASP-102275,CrSnRh2,0.06684,0.0,na,0.3022,,,,,
JVASP-2355,ZnGeP2,-0.23173,1.054,1.932,0.0,,,,,
JVASP-42181,Na3VO4,-2.32599,3.883,4.351,0.0,,,,,
JVASP-104787,KNiIO6,-0.85383,1.196,na,0.0192,,,,,
JVASP-18564,LiMg2Ge,-0.14943,0.0,na,0.1703,,,,,
JVASP-18803,Sc3InN,-1.22509,0.0,0.0,0.0,,,,,
JVASP-106607,Ta2RuW,-0.29154,0.0,na,0.0593,,,,,
JVASP-102821,Ba2CuN2,-0.50991,0.0,na,0.0,,,,,
JVASP-102421,K2RbPrI6,-1.39498,3.007,3.977,0.1054,,,,,
JVASP-15718,FeN,-0.29828,0.0,0.0,0.0,,,,,
JVASP-101953,CdH6C5O4,-0.56774,3.165,na,0.1459,,,,,
JVASP-4119,MgH2O2,-1.8475,4.636,6.752,0.0001,,,,,
JVASP-105353,V3ReB4,-0.67203,0.0,na,0.0122,,,,,
JVASP-14613,Ca,0.00583,0.0,0.0,0.0,,,,,
JVASP-106460,Rb2NaBiBr6,-1.4044,3.066,na,0.0,,,,,
JVASP-105021,K2TaAgBr6,-1.03025,0.0,na,0.1003,,,,,
JVASP-101868,SnH16C9O4,-0.3552,4.751,na,0.1297,,,,,
JVASP-105500,GaCo4,0.05104,0.0,na,0.1577,,,,,
JVASP-16162,ScMnSi,-0.57672,0.0,0.0,0.0,,,,,
JVASP-104629,YbAlHg2,-0.31756,0.0,0.0,0.0022,,,,,
JVASP-102612,SmFeGe2,-0.53308,0.0,na,0.0277,,,,,
JVASP-2802,Tl3SbS3,-0.40589,1.45,2.085,0.0,,,,,
JVASP-101141,Nb3S4,-1.13809,0.0,na,0.0438,,,,,
JVASP-101638,Li5Cu2Ge2,-0.38211,0.0,na,0.0,,,,,
JVASP-105587,LiNi3OF5,-1.77175,0.184,na,0.0841,,,,,
JVASP-103987,CdH20C12O4,-0.3355,3.554,na,0.074,,,,,
JVASP-102713,Mn3V2Ga2Co,-0.25162,0.0,na,0.0042,,,,,
JVASP-101811,H8C9S,0.04658,1.716,na,0.166,,,,,
JVASP-103683,SrPrScO4,-3.49195,3.543,4.731,0.0121,,,,,
JVASP-101747,Al4GaSb5,-0.2294,0.844,na,0.0,,,,,
JVASP-100987,In3Si,0.28194,0.0,na,0.2871,,,,,
JVASP-101095,U3Al3CoRh2,-0.54232,0.0,na,0.0723,,,,,
JVASP-3021,K2ZnF4,-2.79494,4.54,7.154,0.0,,,,,
JVASP-101209,CrCuP2Se6,-0.20975,0.508,na,0.0,,,,,
JVASP-106891,ScFeO3,-2.55863,0.0,na,0.0736,,,,,
JVASP-14685,SiRu,-0.48099,0.0,na,0.0296,,,,,
JVASP-106551,LiPmO3,-2.17768,0.0,na,0.2954,,,,,
JVASP-102520,LiAc2Tl,-0.20547,0.0,0.0,0.0,,,,,
JVASP-103584,Ac2TlCd,-0.37702,0.0,na,0.0,,,,,
JVASP-105203,Mg5In,-0.05813,0.0,0.0,0.0117,,,,,
JVASP-14953,DyCo5,-0.13588,0.0,0.0,0.0246,,,,,
JVASP-12909,P3Ru,-0.5147,0.978,1.015,0.0,,,,,
JVASP-102277,Er,-0.0035,0.0,na,0.0,,,,,
JVASP-15109,DySi2Au2,-0.50407,0.0,na,0.0604,,,,,
JVASP-2559,KCuSe,-0.76502,0.362,1.757,0.0,,,,,
JVASP-105424,Pr2Mn3CoGe4,-0.47941,0.0,na,0.0,,,,,
JVASP-104845,ErMgPd2,-0.87527,0.0,0.0,0.0,,,,,
JVASP-42465,CrNi2,-0.03846,0.0,0.0,0.0,,,,,
JVASP-50381,Tb3NbO7,-3.52459,2.629,3.111,0.0245,,,,,
JVASP-103736,Mg2CdN2,-0.43112,0.44,1.381,0.2238,,,,,
JVASP-106666,Rb2NaVCl6,-1.8002,0.0,na,0.0,,,,,
JVASP-50009,La2Pt2O7,-2.13993,0.982,na,0.0,,,,,
JVASP-104541,Rb2LiAlF6,-3.41887,7.671,10.489,0.0,,,,,
JVASP-104729,Li2CoNiO4,-1.59143,0.0,na,0.002,,,,,
JVASP-43891,Li2VO2F,-2.61428,0.0,0.0,0.1196,,,,,
JVASP-15516,TbCoC2,-0.42636,0.0,0.0,0.0,,,,,
JVASP-18929,NdGe,-0.8632,0.0,na,0.0,,,,,
JVASP-104575,ErPaOs2,-0.40014,0.0,na,0.0,,,,,
JVASP-5203,SbSI,-0.37166,1.607,2.126,0.0053,,,,,
JVASP-13059,LiAuS,-0.7925,1.525,na,0.0219,,,,,
JVASP-106608,SrLa3,0.05222,0.0,na,0.0587,,,,,
JVASP-16163,SrZnSi,-0.50076,0.0,na,0.0,,,,,
JVASP-104906,Y2Mn3Co,-0.00953,0.0,na,0.1165,,,,,
JVASP-104788,WOF4,-2.69165,0.836,na,0.057,,,,,
JVASP-102823,NaSrN,-0.28887,0.289,na,0.1816,,,,,
JVASP-51022,BaH4O3,-1.56811,4.636,7.072,0.0023,,,,,
JVASP-105025,K2ScCuCl6,-1.82235,1.893,na,0.0,,,,,
JVASP-102773,Cu4I3Cl,-0.05223,0.0,na,0.1736,,,,,
JVASP-3477,Nd3InN,-0.94344,0.0,0.0,0.0,,,,,
JVASP-106461,Rb2NaSmCl6,-2.20474,4.96,na,0.0,,,,,
JVASP-100988,LaNdIr2,-0.72386,0.0,na,0.0394,,,,,
JVASP-104151,H6C3O,-0.24809,5.459,na,0.1568,,,,,
JVASP-104112,H6C12S3O,0.08572,1.274,na,0.2734,,,,,
JVASP-101039,TlIn3,0.0019,0.0,na,0.0059,,,,,
JVASP-105270,YbPdO3,-1.53352,0.0,na,0.1815,,,,,
JVASP-15414,Mn3AlC,-0.17343,0.0,na,0.0,,,,,
JVASP-101687,Ti3Se2S4,-1.34558,0.0,na,0.0,,,,,
JVASP-21557,Ca4CN4,-1.05346,1.916,3.313,0.0,,,,,
JVASP-106839,CaPbSe2,-1.38252,0.772,1.066,0.0039,,,,,
JVASP-107055,InPd3,-0.33478,0.0,0.0,0.1043,,,,,
JVASP-105354,TlIn,0.01133,0.0,0.0,0.014,,,,,
JVASP-102422,Rb2TlHgI6,-0.76258,0.0,na,0.0698,,,,,
JVASP-106951,HfBi3,0.20588,0.0,na,0.3019,,,,,
JVASP-102565,Ta3Cu,0.14624,0.0,na,0.1462,,,,,
JVASP-107110,KTlI3,-0.76069,0.0,na,0.1485,,,,,
JVASP-49947,Na2IrO3,-1.38681,0.0,0.0,0.0,,,,,
JVASP-101096,U5P4S,-1.14708,0.0,na,0.0,,,,,
JVASP-103933,ZnH18C11O4,-0.36723,4.394,na,0.0838,,,,,
JVASP-105116,AcZn2In,-0.33155,0.0,0.0,0.0,,,,,
JVASP-101812,H8C7S,0.01083,3.375,na,0.1448,,,,,
JVASP-106552,LiPm2Sn,-0.46607,0.0,na,0.0064,,,,,
JVASP-104681,ThMn3Ni2,-0.08486,0.0,na,0.1655,,,,,
JVASP-104955,In2AgTe3I,-0.29722,0.334,0.887,0.0082,,,,,
JVASP-2463,AlAgS2,-0.86977,1.977,3.143,0.0,,,,,
JVASP-106728,TaAlSi,-0.29037,0.0,0.0,0.0617,,,,,
JVASP-19824,TmAl3,-0.43579,0.0,0.0,0.0061,,,,,
JVASP-101210,Cr3NiSb4,0.0697,0.0,na,0.1384,,,,,
JVASP-15368,Cu2NiSn,0.0652,0.0,na,0.1645,,,,,
JVASP-16030,TbLiCu2P2,-0.83934,0.0,na,0.0,,,,,
JVASP-104630,ZrScTc2,-0.27857,0.0,na,0.0,,,,,
JVASP-13894,FePb2C6N6,0.13515,3.373,3.829,0.1813,,,,,
JVASP-103874,SnH10C10O4,-0.34581,2.843,na,0.173,,,,,
JVASP-103684,SrBeSi,-0.38388,0.0,0.0,0.0,,,,,
JVASP-102614,LaGaSb2,-0.75713,0.0,na,0.0,,,,,
JVASP-14686,CeSb,-1.07393,0.0,0.304,0.0,,,,,
JVASP-102714,MgZnS2,-1.24257,2.548,3.927,0.0233,,,,,
JVASP-15517,YNi2Ge2,-0.70294,0.0,na,0.0,,,,,
JVASP-103808,H5C3SN,0.03749,1.348,na,0.2089,,,,,
JVASP-101142,Nb3Al2Mo3,-0.20791,0.0,0.0,0.026,,,,,
JVASP-106779,MgZn3S4,-0.85608,0.839,2.158,0.2203,,,,,