jid,formula,formation_energy_per_atom,optb88vdw_bandgap,mbj_bandgap,ehull,spacegroup_number,natoms,volume,bulk_modulus_kv,shear_modulus_gv
JVASP-98281,SrCd11,-0.16315,0.0,na,0.0,,,,,
JVASP-65398,BaTlRu2,0.3828,0.0,0.0,0.63,,,,,
JVASP-48176,MnCdO2,-1.1836,0.0,0.0,0.2304,,,,,
JVASP-89326,K4CO4,-1.41941,3.209,na,0.2731,,,,,
JVASP-69196,KBa2Ni,0.32587,0.0,na,0.328,,,,,
JVASP-65590,BaBi2Br,-0.95313,0.0,na,0.1902,,,,,
JVASP-98613,Rb3V2Br9,-1.39658,0.0,na,0.0,,,,,
JVASP-61546,LiAsSe2,-0.59857,0.647,na,0.0135,,,,,
JVASP-88892,Hf3Al2,-0.31925,0.0,na,0.0398,,,,,
JVASP-90784,MgTi,0.03424,0.0,na,0.0342,,,,,
JVASP-97720,SiO2,-1.07165,0.0,na,1.8296,,,,,
JVASP-69111,Ba2PbBr,-1.06587,0.0,na,0.2148,,,,,
JVASP-91536,EuP3,-0.73764,0.0,na,0.0,,,,,
JVASP-85389,CdPdC6N6,0.48884,4.16,4.345,0.5548,,,,,
JVASP-65455,BaFeOs,2.17935,0.0,na,2.1806,,,,,
JVASP-65778,BaCd2Cl,-0.91066,0.0,na,0.2551,,,,,
JVASP-87125,BaCdS2,-1.48179,1.67,3.269,0.0126,,,,,
JVASP-85883,LaNi2,-0.36451,0.0,na,0.036,,,,,
JVASP-86170,Tl2CdGeTe4,-0.26563,0.268,0.761,0.0001,,,,,
JVASP-90600,Ca3Mg,-0.01259,0.0,na,0.0539,,,,,
JVASP-65662,BaNiPt2,0.05066,0.0,na,0.6721,,,,,
JVASP-90648,AlHO2,-2.44848,6.494,na,0.037,,,,,
JVASP-91577,Ti3Pd,-0.35163,0.0,0.0,0.0,,,,,
JVASP-87936,SnP2PbO8,-2.08167,3.976,na,0.0,,,,,
JVASP-42249,Fe3O2F4,-1.79839,0.0,na,0.1084,,,,,
JVASP-69231,BaCrBr2,-0.78179,0.0,0.0,0.9845,,,,,
JVASP-43960,HgBiO3,-0.74138,0.0,na,0.0523,,,,,
JVASP-65518,BaIrPt2,0.00881,0.0,na,0.6303,,,,,
JVASP-69154,BaSi2P,0.29887,0.0,0.0,0.8466,,,,,
JVASP-68953,KBaLi2,0.12312,0.0,0.0,0.1553,,,,,
JVASP-98078,NbTlB2O6,-2.41446,3.394,na,0.0,,,,,
JVASP-65628,BaSe4Br,-0.59701,0.0,na,0.3672,,,,,
JVASP-18888,MnO2,-1.80492,0.157,na,0.0,,,,,
JVASP-62103,Mg3AlPt2,-0.83725,0.0,na,0.0,,,,,
JVASP-65704,BaCd2Cl,-0.91074,0.0,na,0.255,,,,,
JVASP-86396,NdCu2Ge2,-0.53369,0.0,na,0.0002,,,,,
JVASP-65314,BeGe4Os,1.0393,0.0,na,1.0642,,,,,
JVASP-42567,Li2Mg2MnFeP4O16,-2.37243,0.229,na,0.0202,,,,,
JVASP-62306,LiNiAsO4,-1.41017,0.79,na,0.0246,,,,,
JVASP-48875,MnF3,-2.51609,0.0,na,0.0172,,,,,
JVASP-98668,YbLaSe3,-1.82505,0.0,na,0.176,,,,,
JVASP-69273,BaGeBi2,-0.25504,0.0,na,0.2654,,,,,
JVASP-65552,BaSiBi2,-0.07113,0.0,na,0.4505,,,,,
JVASP-16175,BaAsPd,-0.97674,0.0,0.0,0.0,,,,,
JVASP-69073,BaCuRh2,0.39325,0.0,na,0.5091,,,,,
JVASP-42745,V3O5F,-2.6436,0.0,na,0.0028,,,,,
JVASP-65781,BaLiCa2,0.02877,0.0,na,0.0535,,,,,
JVASP-65400,BaZnTe2,-0.73658,0.0,na,0.4516,,,,,
JVASP-88413,NaAl6Fe3Si6B3O30F,-2.7223,0.138,na,0.0502,,,,,
JVASP-65205,BeHg4Pt,0.95905,0.0,na,1.0868,,,,,
JVASP-65519,Ba2LiHf,0.60008,0.0,na,0.6151,,,,,
JVASP-97979,LaMg2Ni,-0.32723,0.0,na,0.0,,,,,
JVASP-65166,ZrBeCo4,-0.15589,0.0,0.0,0.1403,,,,,
JVASP-3861,SmClO,-3.27424,4.863,6.016,0.0,,,,,
JVASP-90005,DyMnGa,-0.2347,0.0,na,0.1905,,,,,
JVASP-97849,Na2Li3CoO4,-1.72833,0.0,na,0.0289,,,,,
JVASP-86114,Ca4TiN4,-1.38518,1.703,2.928,0.0,,,,,
JVASP-69234,Ba2SbTe,-1.24509,0.0,0.0,0.2342,,,,,
JVASP-90874,PrNiSb2,-0.73211,0.0,na,0.005,,,,,
JVASP-92218,Li3NbO4,-2.52053,1.043,1.832,0.0589,,,,,
JVASP-86694,NbBr5,-0.88574,1.472,1.884,0.0007,,,,,
JVASP-69113,BaNa2Pt,-0.05824,0.0,0.0,0.3799,,,,,
JVASP-97798,SmGeRu,-0.68044,0.0,0.0,0.0,,,,,
JVASP-65457,BaCa2Pt,-0.28243,0.0,na,0.3537,,,,,
JVASP-65555,Ba2ZrHg,0.39402,0.0,na,0.6517,,,,,
JVASP-90556,TlPd3,-0.19761,0.0,na,0.0,,,,,
JVASP-88041,Na2SrP4O12,-2.48439,5.675,na,0.0,,,,,
JVASP-61007,Cu3AsS4,-0.25015,0.0,na,0.0003,,,,,
JVASP-65705,BaYHg2,-0.1994,0.0,na,0.278,,,,,
JVASP-97561,LiCuH4Cl3O2,-1.07091,0.321,na,0.0,,,,,
JVASP-69155,BaScSb2,-0.60115,0.0,na,0.4241,,,,,
JVASP-68954,BaIn2Te,-0.45632,0.0,na,0.5001,,,,,
JVASP-69037,Ba2HgPb,-0.61136,0.0,0.071,0.0001,,,,,
JVASP-69074,BaGeP2,-0.06905,0.0,na,0.6296,,,,,
JVASP-90487,PNO,-1.1461,5.638,na,0.0154,,,,,
JVASP-90134,DySiAg,-0.58705,0.0,na,0.0,,,,,
JVASP-65782,BaScPb2,-0.1438,0.0,na,0.4078,,,,,
JVASP-62469,Ti6Al16Rh7,-0.74492,0.0,na,0.0075,,,,,
JVASP-18546,YBRh3,-0.79261,0.0,na,0.0,,,,,
JVASP-62771,MgB2H8,-0.21782,6.05,7.958,0.0,,,,,
JVASP-86750,DyFe2B2,-0.49347,0.0,0.0,0.0,,,,,
JVASP-86228,SiPd2,-0.16873,0.0,na,0.4377,,,,,
JVASP-85485,Ge3Rh5,-0.41318,0.0,na,0.03,,,,,
JVASP-52572,LiAgF2,-2.10118,1.866,3.162,0.0237,,,,,
JVASP-91961,NaMg6Nb,0.16095,0.0,na,0.1625,,,,,
JVASP-68997,Ba2SnPb,-0.58678,0.0,0.0,0.1231,,,,,
JVASP-69114,Ba2CdTe,-0.87772,0.0,na,0.2919,,,,,
JVASP-65167,BeRe4Si,0.84789,0.0,na,0.996,,,,,
JVASP-65591,Ba2CrTe,-0.28625,0.0,0.0,0.6675,,,,,
JVASP-98352,Ba2P2O7,-2.91545,5.065,na,0.0,,,,,
JVASP-90188,PtN4Cl4,1.54619,0.0,na,1.674,,,,,
JVASP-91809,LiRuF6,-2.20522,1.013,na,0.0,,,,,
JVASP-91912,Mg3ZrO4,-2.59127,0.0,na,0.3907,,,,,
JVASP-69311,BaCa2Mg,-0.03893,0.0,0.0,0.0452,,,,,
JVASP-16088,Re,0.0647,0.0,0.0,0.0,,,,,
JVASP-48414,Cr4OF11,-2.66001,0.303,na,0.0187,,,,,
JVASP-48330,Na3LiMnBPO7,-2.18337,1.856,na,0.1009,,,,,
JVASP-65240,BeVMo,0.06477,0.0,na,0.2555,,,,,
JVASP-86870,Ce3SiPt5,-1.11913,0.0,na,0.0,,,,,
JVASP-98154,BH2NCl2,-0.83744,5.813,na,0.0,,,,,
JVASP-69156,Ba2MgZn,-0.15544,0.0,0.0,0.0711,,,,,
JVASP-90264,HoZnPd,-0.79121,0.0,na,0.0,,,,,
JVASP-97423,K4GeS4,-1.21337,2.715,na,0.0,,,,,
JVASP-86926,LaCuSO,-2.22308,1.889,na,0.0,,,,,
JVASP-69360,BaTlSb2,-0.35669,0.0,na,0.2328,,,,,
JVASP-65706,BaSrIn2,-0.47308,0.0,na,0.036,,,,,
JVASP-65664,Ba2TaTe,0.26454,0.0,0.0,1.2183,,,,,
JVASP-69197,Ba2YZr,0.61003,0.0,0.0,0.61,,,,,
JVASP-91671,HoInCo2,-0.27967,0.0,na,0.0072,,,,,
JVASP-97492,Cu4H3C2N5,0.05937,1.921,na,0.1472,,,,,
JVASP-98672,LaSnPt,-1.14898,0.0,na,0.0,,,,,
JVASP-68957,BaGeBi2,-0.2548,0.0,na,0.2656,,,,,
JVASP-62309,V3B4,-0.77959,0.0,na,0.0,,,,,
JVASP-65206,ScBeGe4,0.31147,0.0,na,0.6223,,,,,
JVASP-65592,Ba2GaPb,-0.4765,0.0,na,0.1222,,,,,
JVASP-42830,Mn2OF3,-2.25951,0.0,0.0,0.0,,,,,
JVASP-69075,BaMoBr2,-0.21952,0.0,0.0,1.5467,,,,,
JVASP-98488,Li5TlO4,-1.80381,1.703,na,0.0,,,,,
JVASP-61567,Sr3Al2N4,-1.24344,2.186,na,0.0,,,,,
JVASP-98282,Ni2PdSe2,-0.25992,0.0,na,0.0,,,,,
JVASP-38267,MnZn3,0.02793,0.0,na,0.0293,,,,,
JVASP-69274,BaLi2Ca,0.05785,0.0,0.0,0.093,,,,,
JVASP-65740,K2BaTi,0.61897,0.0,0.0,0.6233,,,,,
JVASP-65280,BeGa4W,0.4403,0.0,0.0,0.5575,,,,,
JVASP-15222,LuSi2Pd2,-0.8256,0.0,0.0,0.0,,,,,
JVASP-90730,TmTe3,-0.88015,0.0,na,0.0082,,,,,
JVASP-88744,LiCu2O2,-1.09254,0.0,na,0.0137,,,,,
JVASP-91764,NaCO2,-1.2275,0.081,0.0,0.4105,,,,,
JVASP-65241,BeBi4Rh,1.10158,0.0,na,1.3013,,,,,
JVASP-69361,K2BaFe,0.79457,0.0,0.0,0.7998,,,,,
JVASP-69115,BaNa2Os,0.98422,0.0,na,1.014,,,,,
JVASP-85737,Sm6InCo2,-0.24555,0.0,na,0.0,,,,,
JVASP-65629,Ba2YHf,0.66561,0.0,0.0,0.6656,,,,,
JVASP-97852,Ce3Ag4Sn4,-0.47996,0.0,na,0.0,,,,,
JVASP-65169,YBeBr4,0.30223,0.0,0.0,1.8788,,,,,
JVASP-69157,BaSrMg2,-0.0938,0.0,na,0.0446,,,,,
JVASP-87844,CdP2,-0.11828,1.428,na,0.0,,,,,
JVASP-62107,Nb5Si3B,-0.61567,0.0,na,0.0057,,,,,
JVASP-69076,Ba2LiCl,-0.65262,0.0,na,0.3734,,,,,
JVASP-87262,Li3AlMo2As2O14,-2.09356,2.898,na,0.0157,,,,,
JVASP-62630,BaTiB2O6,-3.00807,2.375,na,0.0,,,,,
JVASP-91626,KGa,-0.14047,0.0,na,0.0451,,,,,
JVASP-65402,BaRuPt2,0.04406,0.0,0.0,0.6655,,,,,
JVASP-1963,BiTeI,-0.36898,1.2,1.683,0.0,,,,,
JVASP-69312,BaHfBi2,-0.1346,0.0,na,0.4434,,,,,
JVASP-1411,LiN3,-0.20282,3.713,na,0.0572,,,,,
JVASP-91863,CoCu2SnSe4,-0.22092,0.0,na,0.0804,,,,,
JVASP-65520,BaOsCl2,-0.15499,0.0,0.0,1.867,,,,,
JVASP-85308,La2InCu2,-0.39658,0.0,na,0.0,,,,,
JVASP-15735,HoAgGe,-0.42834,0.0,na,0.1566,,,,,
JVASP-3273,K3As,-0.43675,0.214,1.534,0.0,,,,,
JVASP-65556,Ba2PbSe,-0.95044,0.0,0.0,0.4692,,,,,
JVASP-98614,LiAlSiH2O5,-2.2666,4.46,na,0.1303,,,,,
JVASP-65281,Hf4BeP,0.75553,0.0,na,1.2959,,,,,
JVASP-86798,HoSi2Au2,-0.48732,0.0,na,0.0817,,,,,
JVASP-62476,Dy3AlNiS7,-1.7105,0.202,na,0.0298,,,,,
JVASP-86293,Ca3SiBr2,-1.15604,0.003,na,0.2087,,,,,
JVASP-65461,BaHgPd2,-0.23769,0.0,na,0.2493,,,,,
JVASP-90829,TbSn3,-0.38953,0.0,na,0.0724,,,,,
JVASP-92168,NbPt3,-0.65951,0.0,na,0.0,,,,,
JVASP-87066,BaAsPt,-1.03519,0.0,0.0,0.0,,,,,
JVASP-5260,Bi2TeI,-0.2578,0.011,0.152,0.0189,,,,,
JVASP-65242,Ta4BeTe,0.73706,0.0,na,0.8991,,,,,
JVASP-69198,BaCaTa2,1.03871,0.0,na,1.0447,,,,,
JVASP-86460,CaAs2O6,-1.87729,3.479,4.816,0.0001,,,,,
JVASP-88222,Rb2ZnCl4,-1.75177,4.55,na,0.0,,,,,
JVASP-65630,BaSrCd2,-0.25165,0.0,na,0.1699,,,,,
JVASP-68958,BaLiRh2,0.17602,0.0,na,0.3442,,,,,
JVASP-65315,BeVRu4,0.47106,0.0,0.0,0.6955,,,,,
JVASP-65171,BeVCd4,0.67145,0.0,na,0.7286,,,,,
JVASP-69038,BaSr2Sc,0.20288,0.0,0.0,0.2284,,,,,
JVASP-89341,BiB3O6,-2.32085,3.923,na,0.0,,,,,
JVASP-89922,Pr2Fe2S2O3,-2.08564,0.0,na,0.1515,,,,,
JVASP-86521,Eu2I2O,-1.88116,0.0,0.0,0.2106,,,,,
JVASP-97562,H12C4IN,-0.16516,4.49,na,0.0878,,,,,
JVASP-88645,ErVO3,-3.20391,0.0,na,0.0,,,,,
JVASP-65784,Ba2TlV,0.293,0.0,0.0,0.5402,,,,,
JVASP-69235,BaMn2Cu,0.88988,0.0,0.0,0.954,,,,,
JVASP-62314,K5CuAs2,-0.44451,0.383,1.515,0.0122,,,,,
JVASP-63182,LuAsPd,-1.14404,0.0,na,0.0,,,,,
JVASP-18871,Rb2Hg7,-0.06521,0.0,na,0.0533,,,,,
JVASP-14554,ErAu,-0.95045,0.0,na,0.0159,,,,,
JVASP-65521,Ba2TaBi,0.44038,0.0,0.0,1.092,,,,,
JVASP-63039,MgAs4Rh6,-0.46028,0.0,na,0.0133,,,,,
JVASP-91715,BaMg6W,0.26236,0.0,na,0.4105,,,,,
JVASP-87941,KBi2,-0.35253,0.0,na,0.0,,,,,
JVASP-16141,ErAgGe,-0.42318,0.0,na,0.2293,,,,,
JVASP-88414,ErFeO3,-2.65937,0.0,na,0.0103,,,,,
JVASP-97980,SbMo2S2,-0.58387,0.0,0.0,0.0,,,,,
JVASP-48683,VOF,-2.6978,0.0,na,0.0236,,,,,
JVASP-85683,EuMg2H6,-0.33313,0.0,na,0.0495,,,,,
JVASP-69199,Ba2TlCd,-0.4462,0.0,na,0.0168,,,,,
JVASP-65282,BeTlSb4,0.59199,0.0,na,0.5961,,,,,
JVASP-68998,BaSrY2,0.28908,0.0,0.0,0.3074,,,,,
JVASP-62492,Co2As,-0.08065,0.0,na,0.1042,,,,,
JVASP-62775,UCo4B4,-0.41441,0.0,0.0,0.0,,,,,
JVASP-16047,LuC2,-0.3423,0.0,na,0.0,,,,,
JVASP-65465,BaTiOs2,0.47172,0.0,na,0.8534,,,,,
JVASP-97621,Zn5B3Rh7,-0.41425,0.0,na,0.0,,,,,
JVASP-65667,Ba2CrSn,0.04145,0.0,0.0,0.5556,,,,,
JVASP-86397,Tb2Al3Si2,-0.54499,0.0,na,0.0,,,,,
JVASP-65558,BaScGe2,-0.21962,0.0,na,0.5416,,,,,
JVASP-65593,K2BaSe,-0.88543,0.0,na,0.2148,,,,,
JVASP-63045,UAu2,-0.33592,0.0,na,0.0,,,,,
JVASP-65316,YBePb4,0.4398,0.0,na,0.6565,,,,,
JVASP-42868,Pr2TlCd,-0.39081,0.0,na,0.0,,,,,
JVASP-89079,CuTeO3,-0.91799,0.055,na,0.0456,,,,,
JVASP-85600,Al2O3,-2.58725,1.213,2.686,0.7261,,,,,
JVASP-22723,MgMoN2,-1.09348,0.939,1.137,0.0,,,,,
JVASP-61305,Mg2BBrN2,-1.26344,3.62,4.974,0.0166,,,,,
JVASP-63408,RbAuSe2O8,-0.74867,1.57,1.881,0.019,,,,,
JVASP-69363,Ba2CdCl,-0.9088,0.0,0.0,0.318,,,,,
JVASP-62634,PrCo12B6,-0.33892,0.0,0.0,0.0,,,,,
JVASP-69236,BaGaBi2,-0.32927,0.0,na,0.2097,,,,,
JVASP-69077,BaGaRe2,1.37594,0.0,na,1.5825,,,,,
JVASP-65522,BaIn2Sb,-0.42703,0.0,na,0.1113,,,,,
JVASP-86171,BaSbAu,-0.97371,0.0,na,0.0,,,,,
JVASP-65785,Ba2HfPb,0.31958,0.0,0.0,0.7767,,,,,
JVASP-65245,BeTlIn4,0.48644,0.0,na,0.49,,,,,
JVASP-98155,K4P4H6O15,-1.96952,5.328,na,0.0054,,,,,
JVASP-65207,BeTeCl4,0.8547,0.0,na,1.6699,,,,,
JVASP-97724,KEuP4O12,-2.68385,0.002,na,0.0,,,,,
JVASP-86229,TlPAuSe3,-0.18975,0.873,na,0.0002,,,,,
JVASP-85945,Na2Si4Cu2O11,-2.2686,0.403,na,0.0647,,,,,
JVASP-90006,Sr2NO6,-1.31317,0.0,na,0.3433,,,,,
JVASP-98428,NaB2H5O6,-1.71121,5.278,na,0.0,,,,,
JVASP-68999,BaLaIn2,-0.49819,0.0,na,0.0199,,,,,
JVASP-62112,Na4BeAlSi4ClO12,-2.76184,4.766,7.65,0.0,,,,,
JVASP-86060,TaBe12,-0.13381,0.0,na,0.0507,,,,,
JVASP-69314,Ba2HfBi,0.1949,0.0,0.0,0.8465,,,,,
JVASP-69200,BaSrW2,1.39939,0.0,na,1.6961,,,,,
JVASP-88043,LiGe2P3O12,-2.10568,3.616,na,0.0058,,,,,
JVASP-65403,BaFePd2,0.20963,0.0,0.0,0.6975,,,,,
JVASP-65594,Ba2BiW,0.63538,0.0,na,1.4262,,,,,
JVASP-91962,RbMg6C,0.34732,0.0,na,0.3515,,,,,
JVASP-65741,BaCdW2,1.4792,0.0,0.0,1.9735,,,,,
JVASP-65707,BaPd2Rh,0.04245,0.0,0.0,0.5294,,,,,
JVASP-90189,Zr6CuBi2,-0.29181,0.0,na,0.0,,,,,
JVASP-86995,RbN3,-0.21489,4.298,5.387,0.0,,,,,
JVASP-63190,ThAl3,-0.41957,0.0,na,0.0,,,,,
JVASP-61571,Y3AlCoS7,-1.73401,0.05,na,0.0437,,,,,
JVASP-69158,BaSrPb2,-0.27702,0.0,0.0,0.3544,,,,,
JVASP-90557,EuNiGe2,-0.73166,0.0,na,0.0,,,,,
JVASP-97426,BaPr2Ti3O10,-3.47244,1.958,na,0.0,,,,,
JVASP-65466,BaHfGa2,-0.28731,0.0,na,0.1644,,,,,
JVASP-88894,Cu3SbSe4,-0.17623,0.0,na,0.0,,,,,
JVASP-62495,B2CN,-0.53074,0.0,na,0.1926,,,,,
JVASP-65668,BaIrPt2,0.21689,0.0,na,0.8384,,,,,
JVASP-69275,BaSi2Br,-0.18283,0.0,0.0,0.8509,,,,,
JVASP-90267,TbAlCu,-0.48661,0.0,na,0.0,,,,,
JVASP-42332,Li2MnP2HO8,-2.16483,0.821,na,0.0123,,,,,
JVASP-65526,BaLi2La,0.16082,0.0,na,0.1909,,,,,
JVASP-69238,BaCaCr4,1.03578,0.0,0.0,1.0398,,,,,
JVASP-62322,SmAl2Au2,-0.78314,0.0,na,0.0,,,,,
JVASP-69116,BaSc4Mo,0.74142,0.0,0.0,0.7414,,,,,
JVASP-65208,BeTeBr4,0.94249,0.0,0.0,1.5507,,,,,
JVASP-63053,ScNi4Au,-0.43649,0.0,na,0.0,,,,,
JVASP-86626,ScCr2AgH4O10,-1.72076,1.328,1.291,0.0081,,,,,
JVASP-61306,LuNi4Au,-0.45882,0.0,na,0.0,,,,,
JVASP-42833,LiFeOF2,-2.22512,0.0,na,0.1556,,,,,
JVASP-69040,Ba2MgTe,-0.69002,0.0,0.0,0.3395,,,,,
JVASP-85394,C,0.00369,0.036,na,0.0,,,,,
JVASP-65560,BaCdSb2,-0.38893,0.0,na,0.2732,,,,,
JVASP-85822,NiS2,-0.14289,0.0,na,0.2162,,,,,
JVASP-86927,Na2La2Ti3O10,-3.25257,2.104,na,0.01,,,,,
JVASP-68960,BaCaBr2,-1.5703,0.0,0.0,0.2001,,,,,
JVASP-50706,LiSb3P2O10,-1.94085,3.237,na,0.0279,,,,,
JVASP-65595,BaBe2Br,0.36438,0.0,0.0,1.2475,,,,,
JVASP-98489,Tc2O7,-1.46645,2.66,na,0.0,,,,,
JVASP-97622,CoN2O6,-0.38296,0.0,na,0.095,,,,,
JVASP-86115,BaCu2P4,-0.50705,0.0,na,0.0,,,,,
JVASP-87127,U2Al3C4,-0.29936,0.0,na,0.0,,,,,
JVASP-87845,KTlC4N4,0.33518,5.311,na,0.4953,,,,,
JVASP-65631,Ba2SnCl,-1.20074,0.0,0.0,0.2684,,,,,
JVASP-69276,BaZr4Ge,0.46343,0.0,na,0.8145,,,,,
JVASP-65669,BaZr4Ta,0.69746,0.0,na,0.6975,,,,,
JVASP-98353,BaAl4O7,-3.2923,4.324,na,0.0194,,,,,
JVASP-91864,CaMnO2,-2.28468,0.41,na,0.1273,,,,,
JVASP-69117,Ba2CaGe,-0.18574,0.0,0.0,0.3249,,,,,
JVASP-15777,V3Ni,-0.16022,0.0,0.0,0.0,,,,,
JVASP-91673,MgGaAu2,-0.42955,0.0,na,0.0083,,,,,
JVASP-14849,VNi3,-0.25555,0.0,na,0.0,,,,,
JVASP-91627,SbS4N3,2.04161,0.0,na,2.1584,,,,,
JVASP-91765,ZrIn3,-0.20677,0.0,na,0.0011,,,,,
JVASP-69041,BaHfHg4,0.29362,0.0,na,0.4999,,,,,
JVASP-86872,Ce3Sb3Au2,-0.88475,0.0,na,0.0,,,,,
JVASP-98283,KSn6Au4,-0.26796,0.0,na,0.0,,,,,
JVASP-90875,Tl3Au,0.05469,0.0,na,0.0808,,,,,
JVASP-85884,TiNi,-0.39686,0.0,na,0.0362,,,,,
JVASP-90062,ScSiRu,-0.88642,0.0,na,0.0,,,,,
JVASP-3660,Cu2HgI4,-0.16848,0.514,0.996,0.0,,,,,
JVASP-91716,SrZrN2,-1.55288,1.334,1.762,0.0141,,,,,
JVASP-65209,BeNbIn4,0.8057,0.0,na,0.8721,,,,,
JVASP-21213,Hg,0.2387,0.149,na,0.0,,,,,
JVASP-12082,AlPd5I2,-0.40091,0.0,na,0.0,,,,,
JVASP-98158,Fe3Pb8F24,-2.43199,0.148,na,0.0,,,,,
JVASP-89923,NiCl2O6,0.02194,0.566,na,0.3048,,,,,
JVASP-89347,RbNa2AuO2,-1.24156,2.349,na,0.0,,,,,
JVASP-98080,Pr4B10O21,-2.97801,5.053,na,0.0,,,,,
JVASP-88745,Tb3S3N,-2.16098,1.387,na,0.0,,,,,
JVASP-97982,BaCdSnS4,-1.10172,2.05,na,0.0,,,,,
JVASP-65632,BaLi4Cd,-0.09314,0.0,na,0.0698,,,,,
JVASP-3864,Rb2TiCl6,-1.92315,2.016,2.511,0.0,,,,,
JVASP-87069,SrSb2Pd2,-0.7647,0.0,na,0.0,,,,,
JVASP-69159,BaSnPb2,-0.30334,0.0,na,0.1604,,,,,
JVASP-65787,BaMgBi2,-0.43255,0.0,na,0.2587,,,,,
JVASP-62778,BN,-1.38442,4.46,6.114,0.0044,,,,,
JVASP-65469,BaMnGe2,0.20455,0.0,0.0,0.6757,,,,,
JVASP-63414,CrAs,-0.13469,0.0,0.0,0.0085,,,,,
JVASP-2190,KO,-1.2611,2.696,4.834,0.0,,,,,
JVASP-52215,ZrTi2O,-1.41887,0.0,na,0.1307,,,,,
JVASP-90785,MgTi3,0.14531,0.0,0.0,0.1453,,,,,
JVASP-63520,Te2Au,-0.0634,0.0,na,0.0131,,,,,
JVASP-16089,Os,0.13481,0.0,0.0,0.0,,,,,
JVASP-69078,BaScPb2,-0.14409,0.0,0.0,0.4075,,,,,
JVASP-97728,BaV2TeO8,-2.38154,2.414,na,0.0,,,,,
JVASP-63055,NdAs2Rh2,-0.8832,0.0,na,0.0,,,,,
JVASP-97563,Li3H6Ir,-0.50118,3.187,na,0.0,,,,,
JVASP-62123,NdGe2Au2,-0.53184,0.0,na,0.0111,,,,,
JVASP-69119,BaBi2Br,-0.95311,0.0,na,0.1902,,,,,
JVASP-65527,BaP2Br,-0.40771,0.0,0.0,0.882,,,,,
JVASP-18617,Li2SnAu,-0.54534,0.0,na,0.0,,,,,
JVASP-43961,LiVF4,-2.95582,0.0,0.0,0.1177,,,,,
JVASP-87944,Ca2MgP2H4O10,-2.38489,5.9,na,0.0,,,,,
JVASP-14703,Cr3Os,0.00594,0.0,0.0,0.006,,,,,
JVASP-69201,Ba2NaGa,-0.17577,0.0,0.0,0.0575,,,,,
JVASP-65708,Ba2MoPb,0.54349,0.0,0.0,1.0006,,,,,
JVASP-69364,BaCo2Cl,0.31696,0.0,0.0,1.3337,,,,,
JVASP-65283,ZrBeIr4,-0.16275,0.0,na,0.4809,,,,,
JVASP-85314,EuCu4Sn2,-0.21266,0.0,na,0.552,,,,,
JVASP-65246,BeCuBr4,1.08081,0.0,na,1.779,,,,,
JVASP-87286,BaH2O2,-1.88928,4.884,na,0.0,,,,,
JVASP-90378,Li2MnF6,-2.68786,2.386,na,0.1467,,,,,
JVASP-3555,Rb2TeCl6,-1.34902,2.448,2.956,0.0,,,,,
JVASP-69160,Ba2CrPb,0.0861,0.0,na,0.5432,,,,,
JVASP-3282,Rb2PdF6,-2.26255,2.176,2.226,0.0,,,,,
JVASP-98674,CdB2O4,-2.21382,3.465,na,0.0,,,,,
JVASP-65742,BaTlP2,-0.30638,0.0,0.0,0.382,,,,,
JVASP-63705,FeBW,-0.52335,0.0,na,0.0,,,,,
JVASP-62325,K2AsAuS4,-0.70805,0.726,1.73,0.0,,,,,
JVASP-86462,LaSiRu,-0.75302,0.0,na,0.0,,,,,
JVASP-65404,BaCo2Sb,0.3627,0.0,0.0,0.894,,,,,
JVASP-97675,Ba3Y2B6O15,-3.09682,4.449,na,0.0,,,,,
JVASP-90489,FeH4Cl2O2,-0.90866,0.0,na,0.0052,,,,,
JVASP-86400,Li2ZrN2,-1.32995,1.792,2.358,0.0,,,,,
JVASP-69315,BaCuCl2,-1.1802,0.0,0.251,0.8418,,,,,
JVASP-65561,Ba2LiSb,-0.61251,0.0,0.0,0.1571,,,,,
JVASP-69239,BaSrLi2,0.04059,0.0,0.0,0.0834,,,,,
JVASP-69080,BaSr2Ca,0.03163,0.0,na,0.0613,,,,,
JVASP-98491,SnPCl9,-0.77362,2.445,na,0.0,,,,,
JVASP-69365,Ba2SnBr,-1.12082,0.0,na,0.2204,,,,,
JVASP-15982,BaAg2Sn2,-0.42764,0.0,0.0,0.0,,,,,
JVASP-42250,LiMn2Cr2O8,-1.93281,0.0,0.0,0.1416,,,,,
JVASP-65317,BeCo4Te,0.43631,0.0,0.0,0.5976,,,,,
JVASP-65709,Ba2HgTe,-0.9305,0.0,na,0.2809,,,,,
JVASP-65287,BeBi4Br,0.52313,0.0,na,0.7903,,,,,
JVASP-48878,Li7NiO4F2,-2.11754,0.0,na,0.1289,,,,,
JVASP-86294,ThPd3,-0.96311,0.0,na,0.0,,,,,
JVASP-90653,GaPt3,-0.40612,0.0,0.0,0.0199,,,,,
JVASP-91537,PbS,-0.42631,0.298,0.759,0.2296,,,,,
JVASP-86172,TlV5Se8,-0.71022,0.0,na,0.0043,,,,,
JVASP-69000,BaYPt2,-0.82737,0.0,0.0,0.2944,,,,,
JVASP-90191,Rb2MnCl4O2,-1.38065,0.574,0.484,0.151,,,,,
JVASP-65528,Ba2TiSb,-0.04254,0.0,0.0,0.6782,,,,,
JVASP-61311,CoAs,-0.24282,0.0,na,0.0288,,,,,
JVASP-63521,AsPd2,-0.30011,0.0,na,0.0142,,,,,
JVASP-91810,KI,-1.5625,4.0,6.547,0.0197,,,,,
JVASP-88224,RbTi2P3O12,-2.68605,2.707,na,0.0,,,,,
JVASP-90135,TiReSi,-0.67308,0.0,na,0.0,,,,,
JVASP-86754,Rb2Te,-1.09468,1.882,3.157,0.0103,,,,,
JVASP-85601,EuAs2Rh2,-0.78843,0.0,na,0.0,,,,,
JVASP-65247,Ca4BeV,1.22804,0.0,0.0,1.2898,,,,,
JVASP-65596,K2BaP,-0.38071,0.0,0.0,0.1689,,,,,
JVASP-62640,YMnB4,-0.66724,0.0,na,0.0,,,,,
JVASP-88648,Ba2CuGe2O7,-2.1134,0.218,na,0.0291,,,,,
JVASP-86930,Ba2LiReO6,-2.56424,1.878,na,0.0,,,,,
JVASP-69277,Ba2HgBr,-0.89171,0.0,0.0,0.2491,,,,,
JVASP-86627,NaCaVO4,-2.74377,3.557,na,0.0,,,,,
JVASP-18514,Zr6CoAs2,-0.74579,0.0,na,0.0,,,,,
JVASP-16048,CaSi2,-0.40857,0.0,0.0,0.0185,,,,,
JVASP-90601,CeMg3,0.04276,0.0,na,0.0584,,,,,
JVASP-90558,La3Al,-0.22542,0.0,na,0.0,,,,,
JVASP-92219,NaTlO2,-1.20589,0.761,1.673,0.0162,,,,,
JVASP-91913,Mg3MnO4,-2.5538,0.104,na,0.0912,,,,,
JVASP-91579,NbNi3H2C2,0.19202,0.0,na,0.4139,,,,,
JVASP-90009,TaFeB,-0.6158,0.0,na,0.0,,,,,
JVASP-88416,Nd2MoO6,-3.11135,2.464,na,0.0,,,,,
JVASP-90731,LiH2N,-0.52422,2.691,na,0.0219,,,,,
JVASP-63191,LiBC,-0.47022,1.305,na,0.0001,,,,,
JVASP-69319,BaCoGe2,0.38246,0.0,na,0.8865,,,,,
JVASP-65670,Ba2GaSe,-0.88686,0.0,0.0,0.4156,,,,,
JVASP-68961,BaSnW2,1.49057,0.0,na,2.1552,,,,,
JVASP-65172,BePRh,-0.31716,0.0,na,0.2497,,,,,
JVASP-69042,Ba2HfTe,0.04112,0.0,0.0,0.9949,,,,,
JVASP-65743,BaPSe4,-0.0367,0.0,na,0.7292,,,,,
JVASP-66051,BaCaSe,-0.39568,0.0,0.0,1.0712,,,,,
JVASP-69001,BaNaLi2,0.12777,0.0,na,0.1727,,,,,
JVASP-65288,BePb4W,1.39244,0.0,na,1.5097,,,,,
JVASP-97427,K5LiGe2O7,-1.96742,3.252,na,0.0,,,,,
JVASP-85486,TePb2O5,-1.2586,2.23,2.886,0.0115,,,,,
JVASP-66090,Ba4MgOs,1.07851,0.0,0.0,1.129,,,,,
JVASP-65788,Ba2NaFe,0.47257,0.0,0.0,0.5003,,,,,
JVASP-69278,KBaCr2,1.09698,0.0,na,1.0991,,,,,
JVASP-86695,Rb2Hg2PdCl8,-1.03341,1.641,na,0.0,,,,,
JVASP-65529,BaZr4Ni,0.68714,0.0,0.0,0.8682,,,,,
JVASP-65318,LaBeCd4,0.17291,0.0,na,0.3802,,,,,
JVASP-65633,Ba2BiCl,-1.56595,0.992,1.471,0.0655,,,,,
JVASP-63056,CaB2H8,-0.36039,5.021,6.956,0.03,,,,,
JVASP-62790,NdBN2,-1.50853,2.202,3.131,0.0,,,,,
JVASP-3675,ReAg2Cl6,-0.55823,0.591,na,0.0046,,,,,
JVASP-98431,ZnH12C2N6Cl4,-0.48929,4.674,na,0.0073,,,,,
JVASP-14916,BaSn3,-0.50665,0.0,na,0.0,,,,,
JVASP-98677,NdPO4,-3.11046,5.172,na,0.0348,,,,,
JVASP-65472,BaGaFe2,0.80523,0.0,0.0,1.0136,,,,,
JVASP-66052,Ba4NiOs,1.36789,0.0,na,1.3679,,,,,
JVASP-65406,BaMgIr2,0.08929,0.0,na,0.3245,,,,,
JVASP-66091,Ba4NbPt,1.01329,0.0,na,1.3014,,,,,
JVASP-69120,Ba2CrBr,-0.20803,0.0,0.0,0.6751,,,,,
JVASP-86230,NdB2Rh2C,-0.6185,0.0,na,0.0,,,,,