jid,formula,formation_energy_per_atom,optb88vdw_bandgap,mbj_bandgap,ehull,spacegroup_number,natoms,volume,bulk_modulus_kv,shear_modulus_gv
JVASP-98575,Ba5Ga5Pb,-0.56395,0.0,na,0.0,,,,,
JVASP-87337,Fe3O4,-1.34309,0.0,na,0.0377,,,,,
JVASP-86213,Li2ZnGe,-0.37881,0.0,na,0.0394,,,,,
JVASP-64214,Ba4BeHg,0.71826,0.0,na,0.89,,,,,
JVASP-64033,Ba4CoMo,1.48105,0.0,na,1.5018,,,,,
JVASP-63943,Ba4InPd,0.39194,0.0,na,0.8302,,,,,
JVASP-107792,Ba2UFeO6,-2.91046,0.182,na,0.0,,,,,
JVASP-65117,BeCrPd,-0.05524,0.0,0.0,0.3183,,,,,
JVASP-65083,BeVCu4,0.29716,0.0,na,0.3477,,,,,
JVASP-89907,La2Mn2Se2O3,-2.221,0.0,na,0.0592,,,,,
JVASP-64922,BeCuBi4,0.94371,0.0,na,0.9801,,,,,
JVASP-98626,CaH12I2O14,-0.93799,2.08,na,0.0,,,,,
JVASP-64561,Ba4YSb,0.25831,0.0,0.0,0.7388,,,,,
JVASP-64763,Ba4NbTe,0.58257,0.0,0.0,1.2184,,,,,
JVASP-63990,Ba4WBr,0.84037,0.0,na,1.5219,,,,,
JVASP-65037,Ta4BeTc,0.65668,0.0,na,0.8945,,,,,
JVASP-64119,BaScBr,0.12479,0.0,0.0,1.3023,,,,,
JVASP-46857,Li2Co3SnO8,-1.5681,0.0,na,0.0477,,,,,
JVASP-2029,IBr,-0.06538,1.246,2.064,0.0001,,,,,
JVASP-64347,Ba4MgTa,1.03191,0.0,0.0,1.0824,,,,,
JVASP-97819,KSn2Se4,-0.62519,1.121,1.634,0.0041,,,,,
JVASP-97688,CeCoGe3,-0.60216,0.0,0.0,0.0,,,,,
JVASP-64289,Ba4SnBr,-0.16145,0.0,0.0,0.77,,,,,
JVASP-98842,K2CuH8C4O12,-1.21451,0.884,na,0.0482,,,,,
JVASP-63945,Ba4HfGe,0.79359,0.0,na,1.0955,,,,,
JVASP-64035,Ba4BiW,0.87152,0.0,na,1.3987,,,,,
JVASP-97512,LuNiGe2,-0.66768,0.0,na,0.0,,,,,
JVASP-64215,Ba4MgPb,0.21993,0.0,0.0,0.5751,,,,,
JVASP-98243,LiErP4O12,-2.57484,6.018,na,0.0,,,,,
JVASP-161,PbI2,-0.65852,2.272,3.138,0.0017,,,,,
JVASP-97351,Ni23B6,-0.1875,0.0,na,0.0117,,,,,
JVASP-63991,Ba4ZrTa,1.39704,0.0,na,1.397,,,,,
JVASP-64484,Ba4HfSe,0.53881,0.0,0.0,1.2695,,,,,
JVASP-64631,BaSr2Ga,-0.05852,0.0,0.0,0.1804,,,,,
JVASP-97869,BiB3O6,-2.31866,3.518,na,0.0022,,,,,
JVASP-64700,Ba4MgSn,0.21839,0.0,0.0,0.6116,,,,,
JVASP-86855,Eu2PI,-1.42278,0.0,na,0.0,,,,,
JVASP-2133,HgO,-0.22546,1.217,1.916,0.0197,,,,,
JVASP-91705,YMg7,0.01355,0.0,na,0.058,,,,,
JVASP-64120,Ba4MgNi,0.72395,0.0,na,0.8193,,,,,
JVASP-64564,Ba4SrNi,0.67627,0.0,0.0,0.6953,,,,,
JVASP-89044,UCoO4,-2.45198,0.0,na,0.0756,,,,,
JVASP-64764,Ba4NiW,1.45075,0.0,0.0,1.5457,,,,,
JVASP-85471,AgC2N3,0.38167,3.149,4.328,0.3905,,,,,
JVASP-65038,Be2ReSi,-0.03982,0.0,na,0.2301,,,,,
JVASP-85671,CoH2SO5,-1.14951,0.158,na,0.0,,,,,
JVASP-107750,Mn3FeP4,-0.56393,0.0,na,0.0056,,,,,
JVASP-65118,BeMo4Pd,0.53564,0.0,na,0.7224,,,,,
JVASP-64964,BeGe4Ir,0.87998,0.0,na,1.0471,,,,,
JVASP-64351,BaCaBi,-0.23288,0.0,na,0.6302,,,,,
JVASP-65085,YBeCu4,-0.08708,0.0,na,0.1447,,,,,
JVASP-85567,PuNi3,-0.04926,0.0,na,0.2595,,,,,
JVASP-64402,Ba4MgGa,0.38563,0.0,0.0,0.5738,,,,,
JVASP-5509,GaBr2,-0.78301,2.702,3.219,0.0,,,,,
JVASP-42812,Li3VO3F2,-2.70705,3.141,na,0.092,,,,,
JVASP-42633,LiMn2P2O8,-2.07238,0.184,na,0.093,,,,,
JVASP-87115,Pr2Fe17,0.07389,0.0,na,0.0785,,,,,
JVASP-64157,Ba4CaCo,0.88569,0.0,0.0,0.8939,,,,,
JVASP-47972,FeOF,-1.71828,0.0,na,0.1226,,,,,
JVASP-64295,Ba4SeCl,-0.31279,0.0,na,1.0918,,,,,
JVASP-98010,BaLi4,-0.04808,0.0,na,0.0,,,,,
JVASP-50769,Li3CuF6,-2.47806,0.955,na,0.0334,,,,,
JVASP-42547,Li2Fe5O5F7,-1.92948,0.0,na,0.1956,,,,,
JVASP-86786,LuAg4,-0.25479,0.0,0.0,0.0,,,,,
JVASP-98373,TlZn2Sb2,-0.02666,0.0,0.0,0.007,,,,,
JVASP-64830,KBaCr,1.06249,0.0,0.0,1.0654,,,,,
JVASP-90450,KMg6Nb,0.25767,0.0,na,0.2587,,,,,
JVASP-22650,Cs2PdI6,-0.86805,0.0,na,0.0,,,,,
JVASP-64703,Ba4TiZn,0.891,0.0,na,0.9932,,,,,
JVASP-88569,Y3RuI3,-1.0765,0.0,na,0.0,,,,,
JVASP-64076,Ba4NbSe,0.65599,0.0,0.0,1.3866,,,,,
JVASP-64123,Ba4ScRh,0.87338,0.0,na,1.2303,,,,,
JVASP-42314,LiMnF4,-2.75143,0.829,na,0.0204,,,,,
JVASP-63949,Ba4YTa,1.08983,0.0,na,1.0898,,,,,
JVASP-64216,Ba4BeZn,0.79713,0.0,na,0.8993,,,,,
JVASP-97595,Mg3V6Fe4O24,-2.26504,0.0,na,0.0483,,,,,
JVASP-64490,Ba4TlIn,0.21038,0.0,0.0,0.5787,,,,,
JVASP-64633,Ba4HfTe,0.46118,0.0,0.0,1.097,,,,,
JVASP-89981,MnNiAs,-0.16358,0.0,na,0.0122,,,,,
JVASP-49782,Ba2HfO4,-3.41167,3.476,4.918,0.0,,,,,
JVASP-97446,Si2Ag6O7,-1.24337,0.217,na,0.0208,,,,,
JVASP-85931,NbFeF6,-2.65486,0.0,na,0.0202,,,,,
JVASP-65119,Sc4TaBe,0.67037,0.0,0.0,0.7373,,,,,
JVASP-52555,SrCa2I6,-1.69871,3.605,4.359,0.0497,,,,,
JVASP-64887,HfBeFe4,-0.12035,0.0,0.0,0.132,,,,,
JVASP-86106,MoCl3,-0.92454,0.418,na,0.0001,,,,,
JVASP-28358,VS2,-0.95892,0.0,na,0.0064,,,,,
JVASP-65040,ZrBeCd,0.31463,0.0,0.0,0.4871,,,,,
JVASP-86510,LuSi2Cu2,-0.49689,0.0,na,0.0,,,,,
JVASP-1399,Li2Te,-1.11192,2.605,3.045,0.0,,,,,
JVASP-64923,MgBe2Br,0.66433,0.0,na,1.2709,,,,,
JVASP-86162,HoSnAu,-0.82062,0.0,na,0.048,,,,,
JVASP-97397,Na2Nb4O11,-2.67293,2.646,na,0.0,,,,,
JVASP-64352,Ba4MgTl,0.29033,0.0,0.0,0.5083,,,,,
JVASP-64835,Ba4TlGa,0.30864,0.0,na,0.6111,,,,,
JVASP-48660,LiY3WO8,-3.19641,2.317,na,0.092,,,,,
JVASP-65087,Be2VMo,0.22424,0.0,na,0.4451,,,,,
JVASP-91752,BC2N,-0.08625,2.6,3.696,0.6098,,,,,
JVASP-64965,BeNb4Pd,0.44515,0.0,na,0.6319,,,,,
JVASP-22588,ClF3,-0.63161,2.633,4.463,0.0,,,,,
JVASP-64217,Ba2TlCr,0.19406,0.0,na,0.4413,,,,,
JVASP-32220,MoCl3O,-1.21696,0.711,na,0.0335,,,,,
JVASP-64077,Ba4MnSn,0.90216,0.0,na,1.2449,,,,,
JVASP-64159,Ba4CdPb,0.17625,0.0,0.0,0.6249,,,,,
JVASP-63950,Ba4MnGe,0.7155,0.0,na,1.0055,,,,,
JVASP-64124,Ba4TlSi,0.42579,0.0,na,0.7899,,,,,
JVASP-97820,Na2Si2O5,-2.66628,4.545,na,0.0,,,,,
JVASP-86980,B5Mo2,0.13289,0.0,na,0.4823,,,,,
JVASP-64998,BeCu4Pt,0.106,0.0,0.0,0.3018,,,,,
JVASP-97936,InH7N2OF4,-1.21398,3.947,na,0.0718,,,,,
JVASP-48941,LiVF3,-2.80151,1.224,na,0.1055,,,,,
JVASP-64491,Ba4InGe,0.3045,0.0,na,0.798,,,,,
JVASP-64635,Ba4CrSb,0.49503,0.0,na,0.9755,,,,,
JVASP-64767,BaNaMg,0.32375,0.0,na,0.4288,,,,,
JVASP-107793,VOF3,-2.73237,2.908,na,0.0081,,,,,
JVASP-63992,BaCaTe,-0.41862,0.0,0.0,0.8586,,,,,
JVASP-64565,KBaCl,-0.55257,0.186,na,0.8396,,,,,
JVASP-86909,Sr5In3,-0.39796,0.0,na,0.0,,,,,
JVASP-98011,KCeGeSe4,-1.16971,0.0,na,0.0,,,,,
JVASP-64036,BaCaY,0.78694,0.0,0.0,0.7949,,,,,
JVASP-98577,Nd3SeBrN2,-1.71569,1.075,na,0.0071,,,,,
JVASP-97639,Li3Nd3W2O12,-2.91772,0.61,na,0.0135,,,,,
JVASP-98245,SbSBr3F6,-1.50833,2.35,na,0.0,,,,,
JVASP-97762,UH12N2O14,-1.13771,2.446,na,0.0,,,,,
JVASP-98627,Na2Si3H2O8,-2.37961,4.585,na,0.0,,,,,
JVASP-87051,UTe3,-0.55231,0.0,na,0.0,,,,,
JVASP-91999,USe3,-0.96993,0.0,na,0.0002,,,,,
JVASP-65120,Sc4TiBe,0.61069,0.0,na,0.6683,,,,,
JVASP-91946,NdAl3,-0.47919,0.0,na,0.0001,,,,,
JVASP-15304,TmNiC2,-0.4248,0.0,0.0,0.0,,,,,
JVASP-98305,K2MnSnSe4,-0.82752,0.042,0.743,0.0,,,,,
JVASP-107751,MgZn3S4,-1.06402,2.228,3.652,0.0123,,,,,
JVASP-64837,Ba4TlCo,0.75526,0.0,na,0.922,,,,,
JVASP-43020,Li4Cr2P4H3O16,-2.10952,0.0,0.0,0.0,,,,,
JVASP-98460,AlPt2,-0.87978,0.0,0.0,0.0,,,,,
JVASP-98846,SrIn,-0.52114,0.0,0.0,0.0,,,,,
JVASP-98512,Y6Fe16O,-0.39,0.0,na,0.0,,,,,
JVASP-97689,Ca2RuO4,-2.40122,0.0,na,0.0162,,,,,
JVASP-64125,Ba4VSb,0.81231,0.0,na,1.2928,,,,,
JVASP-64769,KBa4Os,1.10257,0.0,na,1.104,,,,,
JVASP-63951,Ba4CoHg,0.87614,0.0,na,1.0498,,,,,
JVASP-64966,LiBeFe4,0.26312,0.0,na,0.3326,,,,,
JVASP-64219,Ba4ScHg,0.53951,0.0,0.0,0.7113,,,,,
JVASP-98195,Li3In2P3O12,-2.2942,3.809,na,0.0,,,,,
JVASP-85286,K2TcI6,-0.76205,0.731,na,0.0,,,,,
JVASP-86738,LuRu2,-0.42269,0.0,na,0.0,,,,,
JVASP-89294,Ce2Fe12P7,-0.71479,0.0,na,0.0,,,,,
JVASP-97596,Ba2VSi2O8,-3.04411,0.96,na,0.0,,,,,
JVASP-63993,Ba4HfSc,0.93357,0.0,0.0,0.9394,,,,,
JVASP-64162,Ba4BeBi,0.48313,0.0,0.0,0.9175,,,,,
JVASP-64494,Ba4MgSb,0.14487,0.0,na,0.6758,,,,,
JVASP-98376,K2PdSe10,-0.40426,0.88,na,0.0061,,,,,
JVASP-64080,Ba4MgFe,1.04074,0.0,0.0,1.0918,,,,,
JVASP-90818,TmNiGe2,-0.64583,0.0,na,0.0,,,,,
JVASP-65088,BeFeBr4,1.26246,0.0,0.0,2.0135,,,,,
JVASP-64999,BeIrBr4,1.65412,0.0,0.0,2.3198,,,,,
JVASP-64704,Ba2YGa,0.08693,0.0,0.0,0.4337,,,,,
JVASP-65041,MgBe2Se,0.33856,0.0,na,1.0183,,,,,
JVASP-64039,Ba4CuP,0.5204,0.0,na,1.0237,,,,,
JVASP-64406,Ba4YSn,0.31264,0.0,0.0,0.6632,,,,,
JVASP-98057,BaY6Si3B6O24F2,-3.32431,5.283,na,0.0,,,,,
JVASP-97515,TmCu3Te3,-0.53252,0.395,na,0.0,,,,,
JVASP-64888,Be2BiIr,0.52175,0.0,na,0.8383,,,,,
JVASP-97871,CeB3O6,-2.90162,0.006,na,0.0,,,,,
JVASP-43531,LiVF4,-3.04136,0.111,na,0.0322,,,,,
JVASP-64924,HfBe2Rh,-0.24394,0.0,na,0.3216,,,,,
JVASP-107794,Li3Co2O2F3,-2.15706,0.0,na,0.1458,,,,,
JVASP-43763,MnPO4,-2.07408,0.302,na,0.0111,,,,,
JVASP-63952,Ba4TlP,0.30773,0.0,na,0.933,,,,,
JVASP-42423,Li3Fe3O4F4,-2.10815,0.0,na,0.1714,,,,,
JVASP-4216,SiAs,-0.05699,0.981,1.666,0.0,,,,,
JVASP-14837,V,0.0,0.0,na,0.0,,,,,
JVASP-64354,BaCaCl,-0.32939,0.0,0.0,1.0254,,,,,
JVASP-86684,NdAlPt,-1.10807,0.0,na,0.0,,,,,
JVASP-64163,Ba2HgBi,-0.75145,0.0,na,0.0195,,,,,
JVASP-64770,Ba4TiTe,0.38407,0.0,0.0,1.0199,,,,,
JVASP-14938,MnS,-0.45107,0.0,0.0,0.0677,,,,,
JVASP-64081,Ba4HfNb,1.36952,0.0,na,1.3695,,,,,
JVASP-64220,Ba4GeBr,0.00081,0.0,0.0,0.8796,,,,,
JVASP-64407,Ba4ZnCd,0.3989,0.0,na,0.645,,,,,
JVASP-64496,Ba4MgCu,0.58564,0.0,na,0.6789,,,,,
JVASP-65122,Be2NbHg,0.34106,0.0,na,0.5297,,,,,
JVASP-64126,Ba4LiTc,1.12496,0.0,0.0,1.135,,,,,
JVASP-65000,BeCoCl4,1.16986,0.0,na,2.1997,,,,,
JVASP-63994,Ba4ZrP,0.7306,0.0,0.0,1.2142,,,,,
JVASP-97938,ZnH6C2N4O4,-0.62428,4.962,na,0.1102,,,,,
JVASP-88170,HgN6,0.7321,2.459,na,0.7454,,,,,
JVASP-15348,BeAlB,-0.11111,0.101,0.125,0.0,,,,,
JVASP-91616,Na2HgPb,-0.13719,0.0,na,0.0336,,,,,
JVASP-64042,Ba4ZnSi,0.53232,0.0,na,0.8338,,,,,
JVASP-12050,MgRe2O8,-1.98767,3.903,na,0.0,,,,,
JVASP-88021,K4Rb2Co2O5,-1.30977,0.0,na,0.0,,,,,
JVASP-3327,Sm2TeO2,-3.10106,1.57,2.31,0.0,,,,,
JVASP-65089,Na4BeSi,0.64728,0.0,na,0.6684,,,,,
JVASP-64705,Ba4YBi,0.23899,0.0,na,0.6734,,,,,
JVASP-63953,Ba4RhBr,0.34562,0.0,na,0.973,,,,,
JVASP-90177,SmZnNi,-0.47472,0.0,na,0.0,,,,,
JVASP-48807,LiMn2OF3,-2.25121,0.885,na,0.0,,,,,
JVASP-90243,SeBr6N2,1.21613,0.0,na,1.2372,,,,,
JVASP-90049,USnPt,-0.49395,0.0,na,0.0675,,,,,
JVASP-86382,LaNi2,-0.36451,0.0,na,0.036,,,,,
JVASP-91896,Mg7Bi,-0.03405,0.0,na,0.0494,,,,,
JVASP-97399,NaMo3P3O16,-2.19751,0.234,na,0.0,,,,,
JVASP-48316,Li5Mn3Fe2O10,-1.76469,0.0,na,0.2082,,,,,
JVASP-98856,MnNb2Zn2O8,-2.10427,0.0,na,0.1011,,,,,
JVASP-64165,Ba4CdSi,0.44944,0.0,na,0.7926,,,,,
JVASP-91570,ErGa2Pd,-0.78484,0.0,na,0.0,,,,,
JVASP-86451,LaPPd,-1.34395,0.0,na,0.0,,,,,
JVASP-91801,SmSb2Pd,-0.82058,0.0,na,0.0066,,,,,
JVASP-87922,Sr2InPt2,-0.90972,0.0,na,0.0,,,,,
JVASP-43051,MnAlO3,-2.33586,1.669,na,0.2045,,,,,
JVASP-88846,Eu,-0.00037,0.0,0.0,0.0,,,,,
JVASP-64082,Ba4MnCo,1.53864,0.0,na,1.5503,,,,,
JVASP-64356,Ba4MnNi,1.40414,0.0,na,1.4243,,,,,
JVASP-97642,KBiP2Se6,-0.42016,1.469,na,0.0,,,,,
JVASP-98513,Bi5IO7,-1.30868,2.51,na,0.0,,,,,
JVASP-64408,Ba4TiHg,0.81414,0.0,na,0.9859,,,,,
JVASP-64224,Ba4GaSe,0.10674,0.0,na,0.9751,,,,,
JVASP-64296,MgBe2In,0.46876,0.0,0.0,0.5258,,,,,
JVASP-97353,Ti3Cu3O,-0.91235,0.0,na,0.0,,,,,
JVASP-98012,Rb3IrN6O12,0.66916,0.0,na,1.5351,,,,,
JVASP-86605,Co2GeO4,-1.22782,0.0,na,0.0893,,,,,
JVASP-91661,TiFeH2,-0.23601,0.0,na,0.1435,,,,,
JVASP-92206,CeAl,-0.34122,0.0,na,0.0323,,,,,
JVASP-64497,Ba4LiCo,0.94264,0.0,0.0,0.9546,,,,,
JVASP-64043,Ba4NbTc,1.56759,0.0,na,1.6774,,,,,
JVASP-90863,NdPt,-1.22287,0.0,na,0.0,,,,,
JVASP-63995,Ba4HfGa,0.8072,0.0,0.0,0.9747,,,,,
JVASP-65001,BeFe4Ir,0.13288,0.0,na,0.2563,,,,,
JVASP-48396,Li5TiV3O8,-2.41031,0.0,na,0.104,,,,,
JVASP-48482,Mn3O4F2,-2.00213,0.0,na,0.0,,,,,
JVASP-42891,LiMnPd2,-0.32816,0.0,na,0.0,,,,,
JVASP-64636,Ba4BiBr,-0.27694,0.0,0.0,0.7462,,,,,
JVASP-85867,Th2Ag,-0.09387,0.0,na,0.009,,,,,
JVASP-98746,HoB7Mo3,-0.54764,0.0,0.0,0.0,,,,,
JVASP-64566,Ba4MgCo,0.91265,0.0,0.0,0.965,,,,,
JVASP-97691,DyMn2O5,-2.57761,0.155,na,0.0,,,,,
JVASP-46371,ZnFeO3,-1.44694,0.0,0.0,0.0421,,,,,
JVASP-64170,Ba4HgSe,0.07374,0.0,0.0,0.9762,,,,,
JVASP-97448,SbSBr3F6,-1.50508,2.455,na,0.0032,,,,,
JVASP-65124,LaBeCl4,-0.34106,0.0,na,1.7435,,,,,
JVASP-88376,Ba2VP2O11,-2.30468,0.409,na,0.229,,,,,
JVASP-98197,Ba3Si4,-0.47448,0.0,na,0.0,,,,,
JVASP-86281,Ce6B2C3Br3,-0.90224,0.0,na,0.0,,,,,
JVASP-64411,Ba4CrBr,0.44399,0.0,na,1.0327,,,,,
JVASP-89908,HfAsRu,-0.72335,0.0,na,0.0048,,,,,
JVASP-64706,Ba4SnCl,-0.16392,0.0,0.0,0.8528,,,,,
JVASP-90121,Ti4H5,-0.40702,0.0,0.0,0.0137,,,,,
JVASP-64840,Ba4ScCu,0.76745,0.0,0.0,0.8768,,,,,
JVASP-97516,LiDyP4O12,-2.57552,6.038,na,0.0,,,,,
JVASP-98461,Ba2SiO4,-3.20908,4.833,na,0.0,,,,,
JVASP-107752,MgTiBi2O6,-2.30213,2.752,3.22,0.0,,,,,
JVASP-44097,ZnSeO4,-0.95354,2.318,3.526,0.0216,,,,,
JVASP-42729,CoOF,-1.46449,0.0,na,0.0111,,,,,
JVASP-86216,MnGaPt,-0.37368,0.0,na,0.0177,,,,,
JVASP-97767,Ca2PN3,-1.30355,2.704,3.751,0.0,,,,,
JVASP-64361,Ba4SrMn,1.0246,0.0,0.0,1.0437,,,,,
JVASP-64299,Ba4BeSb,0.49181,0.0,na,0.9723,,,,,
JVASP-64967,CaTiBe2,0.61753,0.0,na,0.7945,,,,,
JVASP-97354,UCu2P2,-0.50591,0.0,na,0.0222,,,,,
JVASP-98377,Mg2GeB2Rh5,-0.63057,0.0,na,0.0,,,,,
JVASP-64044,Ba2BiP,-0.7327,0.0,na,0.2879,,,,,
JVASP-64569,KBa4Mn,1.07124,0.0,na,1.0727,,,,,
JVASP-64638,Ba4InCu,0.48286,0.0,na,0.7291,,,,,
JVASP-64502,Ba4GePb,0.24065,0.0,na,0.8354,,,,,
JVASP-63997,Ba4MnMo,1.74406,0.0,na,1.7441,,,,,
JVASP-22623,ZnS,-0.88633,2.095,na,0.0005,,,,,
JVASP-64171,Ba4GaBi,0.14013,0.0,na,0.7122,,,,,
JVASP-97873,Ca2MgSi2O7,-3.1923,4.777,na,0.0,,,,,
JVASP-98058,H8C3O2,-0.34422,6.121,na,0.197,,,,,
JVASP-97823,SrY2S4,-2.35909,1.813,na,0.0,,,,,
JVASP-12013,CrGeTe3,-0.12918,0.303,na,0.0241,,,,,
JVASP-98867,Ce3Al2I2,-0.76733,0.0,na,0.0,,,,,
JVASP-65042,Ca4ScBe,0.75694,0.0,0.0,0.81,,,,,
JVASP-98515,LiInI4,-0.77926,1.939,na,0.0,,,,,
JVASP-43063,Li3TiNi2O6,-2.00107,0.0,na,0.0639,,,,,
JVASP-87132,FeO,-1.00383,0.0,na,0.2048,,,,,
JVASP-64707,Ba4ScGe,0.5487,0.0,na,0.8969,,,,,
JVASP-86039,PrOs2,-0.14153,0.0,na,0.0,,,,,
JVASP-65125,Mg4BeTe,0.34586,0.0,na,0.6659,,,,,
JVASP-64412,Ba4MgCr,0.74452,0.0,0.0,0.795,,,,,
JVASP-90635,Mg3FeO4,-2.46799,0.0,na,0.1101,,,,,
JVASP-98628,RbCoH24C14N8,-0.06996,4.0,na,0.138,,,,,
JVASP-64771,Ba4NaSn,0.1811,0.0,0.0,0.5417,,,,,
JVASP-64889,HfScBe2,0.22249,0.0,0.0,0.3961,,,,,
JVASP-98116,Mn5Si2,-0.18609,0.0,na,0.0578,,,,,
JVASP-64925,ZrBe2V,0.20747,0.0,0.0,0.3592,,,,,
JVASP-64127,Ba4SiBr,0.11083,0.0,0.0,0.8989,,,,,
JVASP-64174,KBaCd,0.18956,0.0,na,0.4802,,,,,
JVASP-42669,Na8SnO6,-1.56161,2.02,4.48,0.0587,,,,,
JVASP-90588,LiMg3,-0.03684,0.0,na,0.0252,,,,,
JVASP-64504,Ba4BeTe,0.38131,0.0,na,1.0171,,,,,
JVASP-98306,PrMo6O12,-2.29458,0.0,na,0.0,,,,,
JVASP-63998,Ba4SbW,0.87885,0.0,na,1.4521,,,,,
JVASP-85373,Y2AlNi2,-0.60702,0.0,0.0,0.0045,,,,,
JVASP-64571,Ba4CrCl,0.44679,0.0,0.0,1.1208,,,,,
JVASP-98013,LaIn2Pd,-0.70206,0.0,na,0.0,,,,,
JVASP-98246,CuAg5As3O11,-0.81312,0.25,na,0.0058,,,,,
JVASP-64640,Ba4TePb,-0.15067,0.0,na,0.7899,,,,,
JVASP-85795,BaSn2H2O4,-1.69999,2.254,3.064,0.0,,,,,
JVASP-97597,LiV2O5,-2.53448,0.306,na,0.0,,,,,
JVASP-97643,Ho4InRh,-0.59081,0.0,na,0.0,,,,,
JVASP-50410,YAlO3,-3.60696,5.125,na,0.0281,,,,,
JVASP-3831,IrCl3,-0.51235,1.793,2.097,0.0,,,,,
JVASP-48109,LiVGeO5,-2.1412,1.613,na,0.0792,,,,,
JVASP-90451,KMg6Nb,0.26269,0.0,na,0.2638,,,,,
JVASP-90545,Ti3In,-0.12331,0.0,0.0,0.0005,,,,,
JVASP-91855,MnPtF6,-1.86007,0.706,na,0.0216,,,,,
JVASP-89050,SrWO4,-2.94057,4.329,5.122,0.0,,,,,
JVASP-64927,ZrBeBi4,0.82937,0.0,na,1.009,,,,,
JVASP-64413,Ba4CaTc,1.04658,0.0,0.0,1.0529,,,,,
JVASP-64772,Ba4ZrBi,0.4705,0.0,0.0,0.9049,,,,,
JVASP-107753,LaDy,0.00992,0.0,na,0.0381,,,,,
JVASP-98759,KAgCO3,-1.41618,2.308,na,0.0,,,,,
JVASP-64506,Ba4YZr,0.78909,0.0,na,0.7891,,,,,
JVASP-64225,Ba4ScBe,0.91562,0.0,0.0,0.9575,,,,,
JVASP-65180,BeGe4Pt,0.72278,0.0,na,0.9657,,,,,
JVASP-64083,Ba4TaHg,1.02066,0.0,0.0,1.1924,,,,,
JVASP-65126,Na4BeSn,0.41599,0.0,na,0.562,,,,,
JVASP-63999,Ba4BeNb,1.27067,0.0,na,1.3335,,,,,
JVASP-91528,Ti3Sn,-0.28617,0.0,0.0,0.0,,,,,
JVASP-65139,BeNbW,-0.04454,0.0,0.0,0.2668,,,,,
JVASP-64574,Ba4InBi,0.0518,0.0,na,0.6897,,,,,
JVASP-97692,ReBiO4,-1.62009,0.0,na,0.0,,,,,
JVASP-64128,Ba4HgP,0.3352,0.0,0.0,0.9675,,,,,
JVASP-97400,K6Na3AlSb4,-0.56308,0.795,1.6,0.0,,,,,
JVASP-97311,LiBS2O8,-1.7139,6.396,na,0.0,,,,,
JVASP-65002,HfBe2Ru,-0.09114,0.0,0.0,0.4285,,,,,
JVASP-64643,Ba4VHg,1.03077,0.0,na,1.2025,,,,,
JVASP-65090,Li4BeW,0.62689,0.0,0.0,0.7447,,,,,
JVASP-98385,LaNbO4,-3.33253,3.59,na,0.0,,,,,
JVASP-97944,YH16C4N9O16,-0.75158,1.79,na,0.2668,,,,,
JVASP-14553,ZrNi5,-0.35433,0.0,na,0.0,,,,,
JVASP-97824,S2N2Cl,0.36027,2.158,na,0.4367,,,,,
JVASP-64843,Ba4TiBr,0.43414,0.0,0.0,1.0229,,,,,
JVASP-98060,H5N3O3,-0.33453,3.272,na,0.3646,,,,,
JVASP-98581,Mg2Al4Si5O18,-3.08251,4.77,na,0.0106,,,,,
JVASP-98247,LaCN2F,-1.87663,2.954,na,0.0,,,,,
JVASP-87222,V2CuO6,-2.04655,0.0,na,0.0097,,,,,
JVASP-1762,SrCN2,-0.9681,3.229,5.474,0.0025,,,,,
JVASP-86511,DySiCu,-0.66775,0.0,na,0.0,,,,,
JVASP-88722,SrAl12O19,-3.32826,4.86,na,0.0,,,,,
JVASP-86788,Ba5Ga5Sn,-0.55232,0.0,na,0.0,,,,,
JVASP-64300,Ba4CaRh,0.68141,0.0,0.0,0.8248,,,,,
JVASP-42235,Fe3O5F,-1.51351,0.0,na,0.0512,,,,,
JVASP-14622,Ga,0.0,0.0,0.0,0.0,,,,,
JVASP-97768,NbNiTe5,-0.32104,0.0,na,0.0,,,,,
JVASP-64362,Ba4NaSb,0.10784,0.0,0.0,0.6062,,,,,
JVASP-91947,UCuP2,-0.6491,0.0,na,0.011,,,,,
JVASP-97877,Ca4P6O19,-2.74612,5.467,na,0.0,,,,,
JVASP-43071,Li2Ti3SbO8,-2.70747,0.0,na,0.0926,,,,,
JVASP-64416,Ba4SrMo,1.09204,0.0,na,1.1111,,,,,
JVASP-98462,Ta5Ge3,-0.32014,0.0,0.0,0.0,,,,,
JVASP-65181,Sc4BeW,0.66441,0.0,na,0.7991,,,,,
JVASP-64086,Ba4HfFe,1.4545,0.0,na,1.5529,,,,,
JVASP-64507,Ba4CdP,0.33427,0.0,na,0.9387,,,,,
JVASP-98307,TePCl9,-0.61338,1.948,na,0.0,,,,,
JVASP-65043,Sr4TiBe,1.17567,0.0,na,1.2333,,,,,
JVASP-97646,CeTe3,-1.03293,0.0,na,0.0,,,,,
JVASP-64226,Ba4GaSn,0.23625,0.0,na,0.7167,,,,,
JVASP-64576,Ba4YGa,0.48661,0.0,na,0.7178,,,,,
JVASP-1174,GaAs,-0.33458,0.085,1.321,0.0,,,,,
JVASP-90720,NbCrN2,-0.28617,0.0,0.0,0.6748,,,,,
JVASP-15074,YCo5,-0.13623,0.0,na,0.0222,,,,,
JVASP-64709,Ba4BeBr,0.41746,0.0,0.0,1.0062,,,,,
JVASP-64644,Ba4BePb,0.58007,0.0,na,0.8848,,,,,
JVASP-65214,BeVIn4,0.94403,0.0,na,0.9981,,,,,
JVASP-98869,Ti2Sn3,-0.30398,0.0,na,0.0,,,,,
JVASP-89982,ThAlIr,-1.02387,0.0,na,0.0,,,,,
JVASP-90347,CuH4O2F2,-1.22608,0.527,na,0.0197,,,,,
JVASP-64301,Ba4ZrIn,0.62263,0.0,na,0.8261,,,,,
JVASP-65127,BeNb4Tl,0.64222,0.0,na,0.7051,,,,,
JVASP-65091,ScBeSb4,0.59002,0.0,na,0.9232,,,,,
JVASP-86739,FeAg3C6N6,0.39108,0.0,na,0.4344,,,,,
JVASP-42316,Na5CrO4,-1.60522,0.0,na,0.0966,,,,,
JVASP-64175,Ba4TaBr,0.76403,0.0,0.0,1.3528,,,,,
JVASP-97450,Te7O6F30,-1.81778,2.333,na,0.0223,,,,,
JVASP-65253,BeBi4Pd,0.86935,0.0,na,1.0561,,,,,
JVASP-86857,BiPd,-0.28157,0.0,na,0.0128,,,,,
JVASP-98198,CdAu,-0.19102,0.0,0.0,0.0,,,,,
JVASP-47976,Fe4O3F5,-1.87109,0.0,na,0.0192,,,,,
JVASP-90819,BaAl,-0.22514,0.0,na,0.058,,,,,
JVASP-64928,BeNi4Rh,0.14654,0.0,0.0,0.3462,,,,,
JVASP-92000,UPt3,-0.79645,0.0,na,0.0001,,,,,
JVASP-85473,Cu2AsClO4,-0.83295,0.0,na,0.0502,,,,,
JVASP-64776,KBaHg,0.1428,0.0,0.0,0.4892,,,,,
JVASP-65140,BeIn4Pt,0.71654,0.0,na,1.0059,,,,,
JVASP-64364,Ba4ZnBi,0.16618,0.0,0.0,0.7028,,,,,
JVASP-64969,Be2CdCu,0.30409,0.0,0.0,0.4158,,,,,
JVASP-88581,BaCu6As2,-0.28413,0.0,na,0.0178,,,,,
JVASP-97355,ScU3S6,-1.74604,0.0,na,0.0,,,,,
JVASP-98585,H8PtO6,-0.88727,1.702,na,0.0364,,,,,
JVASP-90776,Sr3Mg,0.03103,0.0,na,0.0913,,,,,
JVASP-91754,YSnPt2,-1.0261,0.0,na,0.0,,,,,
JVASP-98062,Na4CuAs2O8,-1.61713,0.811,na,0.0,,,,,
JVASP-97947,TiSnSb,-0.32625,0.0,na,0.0,,,,,
JVASP-97825,SmCl2,-2.02324,0.0,na,0.0,,,,,
JVASP-42814,Na3Mn5O12,-1.80992,0.0,0.0,0.0216,,,,,
JVASP-64509,KBa4Ir,0.80847,0.0,0.0,0.8099,,,,,
JVASP-64087,Ba2LiGa,-0.18857,0.0,na,0.037,,,,,
JVASP-64845,KBaTl,0.15108,0.0,0.0,0.4835,,,,,
JVASP-98518,Sc4Ge6Rh7,-0.68586,0.0,na,0.1546,,,,,
JVASP-15593,HoGeAu,-0.84016,0.0,0.0,0.0,,,,,
JVASP-42426,Li2FeF4,-2.60664,0.0,na,0.0802,,,,,
JVASP-22516,FeF2,-1.61447,0.0,0.0,0.3964,,,,,
JVASP-64227,Ba4ScPd,0.67111,0.0,0.0,0.9837,,,,,
JVASP-4609,MnPSe3,-0.20371,0.0,0.0,0.0958,,,,,
JVASP-48944,Li3VF7,-3.01546,0.0,4.078,0.1045,,,,,
JVASP-89295,CaGaGe,-0.59696,0.0,na,0.0,,,,,
JVASP-64890,BeCu4Rh,0.18895,0.0,0.0,0.3887,,,,,
JVASP-97401,LaCdAu,-0.7632,0.0,na,0.0,,,,,
JVASP-32146,Sn4SF6,-2.00018,2.482,na,0.0663,,,,,
JVASP-85719,CeCoGeH,-0.63207,0.0,na,0.0,,,,,
JVASP-14839,Fe,0.18253,0.0,na,0.0,,,,,
JVASP-98636,Na2TeH10O8,-1.18981,4.554,na,0.0,,,,,
JVASP-52560,Ho2TiO5,-3.59074,3.109,3.521,0.0858,,,,,
JVASP-65044,BePdBr4,1.07013,0.0,na,1.7532,,,,,
JVASP-97520,Li5H9Pt2,-0.45421,0.0,0.433,0.0,,,,,
JVASP-64577,Ba4SrRh,0.66675,0.0,na,0.7625,,,,,
JVASP-107754,IrOs,0.01561,0.0,na,0.021,,,,,
JVASP-64418,KBaTi,1.25773,0.0,0.0,1.2606,,,,,