jid,formula,formation_energy_per_atom,optb88vdw_bandgap,mbj_bandgap,ehull,spacegroup_number,natoms,volume,bulk_modulus_kv,shear_modulus_gv
JVASP-92252,Li3MnO2F2,-2.54673,1.479,na,0.0,,,,,
JVASP-86662,Y3Ni13B2,-0.4621,0.0,na,0.0024,,,,,
JVASP-85647,LaH3C3O6,-1.53498,4.408,na,0.0353,,,,,
JVASP-14923,KSnS2,-0.83258,0.0,1.634,0.0752,,,,,
JVASP-70019,Be2TcRu,-0.0648,0.0,na,0.205,,,,,
JVASP-87094,Rb2MnS2,-1.0549,1.0,na,0.0,,,,,
JVASP-69928,YBe2Rh,-0.02362,0.0,na,0.4548,,,,,
JVASP-68072,SrBeTc2,0.74879,0.0,na,0.8309,,,,,
JVASP-75744,CdAsPd,0.14603,0.0,na,0.4396,,,,,
JVASP-68339,ZrBe2Br,0.28638,0.0,na,0.9297,,,,,
JVASP-67172,ZrBe2Cl,-0.19013,0.0,na,0.6186,,,,,
JVASP-68408,BeNbTe2,0.61448,0.0,0.0,1.0337,,,,,
JVASP-20091,ScIr,-1.13736,0.0,0.0,0.0,,,,,
JVASP-75485,MgNbAs,0.71722,0.0,na,1.2543,,,,,
JVASP-75778,TiAsP2,0.23755,0.0,0.0,0.8544,,,,,
JVASP-67847,HfBe2Hg,0.22106,0.0,na,0.3996,,,,,
JVASP-68896,Be2HgP,0.55457,0.0,na,0.6837,,,,,
JVASP-75710,HgB2As,1.93041,0.0,na,2.0293,,,,,
JVASP-85354,CeGaNi,-0.58058,0.0,na,0.0868,,,,,
JVASP-75528,ReAsCl,1.73366,0.0,na,2.0538,,,,,
JVASP-28965,MoW3Se2S6,-0.81008,0.706,na,0.1413,,,,,
JVASP-16222,NdSi,-0.74579,0.0,0.0,0.0,,,,,
JVASP-91787,HfAlPt2,-0.43292,0.0,na,0.6836,,,,,
JVASP-75594,MoAsPd2,-0.03257,0.0,na,0.2189,,,,,
JVASP-75562,TaGeAs,0.70976,0.0,0.0,1.0454,,,,,
JVASP-86345,Re3P4,-0.35047,0.0,na,0.0,,,,,
JVASP-15600,USi2Rh2,-0.73764,0.0,na,0.0,,,,,
JVASP-19870,CaB6,-0.44978,0.045,0.059,0.0,,,,,
JVASP-52354,BaCaI4,-1.71222,3.595,4.223,0.0968,,,,,
JVASP-72801,TaBe2Se,0.3836,0.0,na,0.9492,,,,,
JVASP-42784,TiNiO3,-2.25441,0.601,na,0.0084,,,,,
JVASP-86196,HoSi2Au2,-0.48732,0.0,na,0.0817,,,,,
JVASP-88482,Sr2DySbO6,-2.9208,3.915,na,0.0,,,,,
JVASP-75820,AsIrBr,1.44311,0.0,0.0,1.7944,,,,,
JVASP-54622,GaFe2Ni,-0.0036,0.0,na,0.1822,,,,,
JVASP-86960,LaZnPO,-2.02568,0.625,na,0.0,,,,,
JVASP-67646,BeCo2Br,0.40362,0.0,na,0.8878,,,,,
JVASP-69470,Hf4BeRh,0.62767,0.0,na,0.9923,,,,,
JVASP-86145,TbGa2Co3,-0.37519,0.0,na,0.016,,,,,
JVASP-69724,Be2CoSi,-0.2518,0.0,0.0,0.0365,,,,,
JVASP-69555,Be2TlNi,0.2201,0.0,na,0.4778,,,,,
JVASP-67521,LiBe2Ir,-0.1368,0.0,na,0.2973,,,,,
JVASP-68825,Be2FeRu,-0.12964,0.0,na,0.1411,,,,,
JVASP-68013,BePdPt2,-0.17168,0.0,0.0,0.2352,,,,,
JVASP-67728,BeBiSe2,-0.1652,0.0,0.0,0.4705,,,,,
JVASP-73956,BeV2Ir,-0.29674,0.0,0.0,0.1919,,,,,
JVASP-67606,KBeSe2,-0.49362,0.0,na,0.4934,,,,,
JVASP-87166,Sr2CaWO6,-3.0362,2.786,3.883,0.0142,,,,,
JVASP-68461,BeTl2Fe,0.4335,0.0,0.0,0.5348,,,,,
JVASP-43812,LiMnCo3O8,-1.40133,0.0,0.0,0.0725,,,,,
JVASP-16117,LuSiAu,-0.76742,0.0,na,0.0,,,,,
JVASP-94125,LiMg6Co,0.04241,0.0,na,0.0849,,,,,
JVASP-90687,LiSmSn2,-0.54696,0.0,na,0.0399,,,,,
JVASP-90806,PrCoGe2,-0.66584,0.0,na,0.0,,,,,
JVASP-86089,YRu2,-0.35707,0.0,na,0.0,,,,,
JVASP-1909,NaInSe2,-0.84569,1.001,2.014,0.0,,,,,
JVASP-3906,CdBr2,-0.88513,2.742,4.445,0.0,,,,,
JVASP-85774,FeCl3,-0.68407,0.47,na,0.0095,,,,,
JVASP-86715,Ca4TiN4,-1.38518,1.703,2.899,0.0,,,,,
JVASP-67807,SrBeTe2,-0.60779,0.0,na,0.5313,,,,,
JVASP-67690,Be2PPb,0.84329,0.0,na,0.9724,,,,,
JVASP-85525,GeTe,0.05757,0.047,na,0.1679,,,,,
JVASP-90850,SrAgTeF,-2.05225,1.455,2.607,0.0,,,,,
JVASP-69642,Be2SiOs,-0.18124,0.0,na,0.0,,,,,
JVASP-91556,ThSe3,-1.40889,1.145,1.911,0.0,,,,,
JVASP-68159,BeOsW2,-0.20104,0.0,na,0.114,,,,,
JVASP-68900,SrZrBe2,0.19694,0.0,0.0,0.3411,,,,,
JVASP-89227,NaTh2F9,-4.11941,6.96,na,0.0,,,,,
JVASP-85701,LiBH4,-0.33733,6.859,na,0.0335,,,,,
JVASP-69869,Be2PtRh,-0.53371,0.0,0.0,0.2208,,,,,
JVASP-69803,TaBe2V,0.10199,0.0,0.0,0.3196,,,,,
JVASP-74044,MgBeRh2,-0.29301,0.0,0.0,0.2588,,,,,
JVASP-12172,CrP2S7,-0.29377,0.0,0.002,0.0515,,,,,
JVASP-18405,YH2,-0.77687,0.0,0.366,0.0,,,,,
JVASP-75779,AsOs2Pt,0.69742,0.0,na,0.8782,,,,,
JVASP-74126,BeMoW2,-0.12161,0.0,na,0.2672,,,,,
JVASP-68212,BeGa2Fe,0.01238,0.0,0.0,0.2397,,,,,
JVASP-68586,TiBeHg,0.44177,0.0,0.0,0.5714,,,,,
JVASP-53811,SrMg2FeH8,-0.43765,1.651,na,0.0,,,,,
JVASP-75595,AsPAu,0.35888,0.0,0.0,0.4271,,,,,
JVASP-67320,Be2FeSb,0.34127,0.0,0.0,0.543,,,,,
JVASP-68410,BeReSn2,0.31504,0.0,na,0.4494,,,,,
JVASP-67570,KMn2Be,0.55603,0.0,na,0.6464,,,,,
JVASP-75821,TcAsW2,0.11567,0.0,0.0,0.4902,,,,,
JVASP-22679,Rb2H6Pt,-0.40408,3.889,5.277,0.0,,,,,
JVASP-69726,SrBeSb,-0.53698,0.0,0.67,0.0881,,,,,
JVASP-75625,AsOs2Cl,1.06666,0.0,na,1.3468,,,,,
JVASP-75850,ZrCr2As,0.22291,0.0,0.0,0.812,,,,,
JVASP-48434,VOF2,-2.7411,0.0,na,0.1098,,,,,
JVASP-15266,Er2Mo2C3,-0.46613,0.0,na,0.0,,,,,
JVASP-67772,BeCdRu2,0.06402,0.0,0.0,0.2014,,,,,
JVASP-68073,LaBeOs,-0.15364,0.0,na,0.0,,,,,
JVASP-14196,LiCeSn2,-0.52085,0.0,na,0.0241,,,,,
JVASP-42272,Mn3OF5,-2.28981,0.036,na,0.0,,,,,
JVASP-92925,Mg6CdGa,-0.05582,0.0,na,0.0285,,,,,
JVASP-91888,Mg7Sn,-0.04885,0.0,na,0.0474,,,,,
JVASP-70023,Be2TlSb,0.4955,0.0,na,0.5016,,,,,
JVASP-68341,Be2CrFe,-0.03071,0.0,na,0.171,,,,,
JVASP-67894,BeV2Cr,0.09019,0.0,0.0,0.2148,,,,,
JVASP-85841,UGe2,-0.25462,0.0,na,0.0258,,,,,
JVASP-86271,Sr8Mn2FeN8,-0.88899,0.0,na,0.0163,,,,,
JVASP-70108,Be2SnSb,0.41705,0.0,na,0.4223,,,,,
JVASP-91697,BaZnAsF,-1.99236,0.225,1.203,0.0,,,,,
JVASP-68705,KSr2Be,0.56973,0.0,0.0,0.5929,,,,,
JVASP-69472,LiBe2Tc,0.10066,0.0,na,0.2652,,,,,
JVASP-67947,BeZn2Bi,0.48982,0.0,na,0.4898,,,,,
JVASP-50414,NaSn2O4,-1.66648,0.0,na,0.1254,,,,,
JVASP-69557,SrBe2Sn,0.36075,0.0,na,0.7393,,,,,
JVASP-91599,HfSb,-0.5061,0.0,na,0.0086,,,,,
JVASP-75711,NaCrAs,0.19121,0.0,na,0.4934,,,,,
JVASP-50353,TbErO3,-3.77912,4.774,na,0.0676,,,,,
JVASP-67808,BeSeBr,-0.28396,0.0,na,0.5606,,,,,
JVASP-75668,AsPdRh2,0.0582,0.0,na,0.3561,,,,,
JVASP-68523,BeNiPb2,0.58626,0.0,0.0,0.82,,,,,
JVASP-75486,NaLiAs,-0.30343,0.0,0.0,0.3155,,,,,
JVASP-75626,HfAsPt,-0.61231,0.0,na,0.3609,,,,,
JVASP-28765,MoWS4,-0.90884,0.94,na,0.0884,,,,,
JVASP-90111,Yb2Ge6Pt,-0.47688,0.0,na,0.0704,,,,,
JVASP-68901,Be2HgTe,0.43305,0.0,na,0.6446,,,,,
JVASP-75822,ReMo2As,0.35146,0.0,na,0.4845,,,,,
JVASP-48492,V6O7F5,-2.66008,0.0,na,0.0554,,,,,
JVASP-68275,BeFeRh2,-0.1262,0.0,0.0,0.1743,,,,,
JVASP-69870,Be2InRe,0.23252,0.014,0.226,0.5026,,,,,
JVASP-94067,Mg6VCr,0.33983,0.0,na,0.3642,,,,,
JVASP-75745,NbAsRh2,-0.20025,0.0,na,0.3367,,,,,
JVASP-69728,Be2MoBr,0.78447,0.0,na,1.351,,,,,
JVASP-69807,YBeGe,-0.72549,0.0,na,0.0,,,,,
JVASP-75564,NiAsPd,-0.26319,0.0,na,0.0,,,,,
JVASP-70194,NaBe2Cu,0.30156,0.0,na,0.4138,,,,,
JVASP-67729,KBeBi,0.27531,0.0,na,0.5696,,,,,
JVASP-86827,Tl2HgGeTe4,-0.15027,0.31,0.696,0.0082,,,,,
JVASP-68636,BeGeP2,0.5671,0.0,0.0,0.9034,,,,,
JVASP-68826,Be2Sb2Rh,0.80728,0.0,na,1.1262,,,,,
JVASP-76197,K3Pd,0.10507,0.0,na,0.1115,,,,,
JVASP-67326,Be2ReGe,0.47603,0.0,na,0.7448,,,,,
JVASP-3600,ZrIN,-1.54348,1.333,1.58,0.0112,,,,,
JVASP-17257,Cu2GeS4,-0.2686,0.0,0.0,0.0783,,,,,
JVASP-93103,CeMg6Nb,0.15112,0.0,na,0.1589,,,,,
JVASP-69929,MgMnBe2,0.20565,0.0,0.0,0.382,,,,,
JVASP-75823,TlBAs,1.13213,0.0,na,1.1981,,,,,
JVASP-1309,CaSe,-2.17597,2.137,2.882,0.0,,,,,
JVASP-1852,KYTe2,-1.50203,1.325,1.751,0.0,,,,,
JVASP-89896,Ce2Fe2Se2O3,-2.04573,0.0,na,0.16,,,,,
JVASP-75780,FeAsCl,1.05474,0.0,na,1.5558,,,,,
JVASP-43994,LiVP4H4O14,-1.96612,0.204,na,0.0078,,,,,
JVASP-69644,NaBe2Rh,0.31919,0.0,na,0.6835,,,,,
JVASP-75596,TiGaAs,0.2553,0.0,na,0.8973,,,,,
JVASP-87897,CaTa2O6,-3.25318,3.575,na,0.0,,,,,
JVASP-14796,CeIr2,-0.82888,0.0,0.0,0.0,,,,,
JVASP-75565,BeSbAs,0.37853,0.0,na,0.3944,,,,,
JVASP-68760,Be2TeRh2,-0.01111,0.0,0.0,0.5203,,,,,
JVASP-72807,TiBe2Nb,-0.0644,0.0,0.0,0.1242,,,,,
JVASP-76198,Rb3Re,1.46386,0.0,na,1.4866,,,,,
JVASP-68161,Na2HfBe,0.8234,0.0,na,0.9129,,,,,
JVASP-22726,Na2TlSb,-0.37477,0.479,0.966,0.0,,,,,
JVASP-67809,YBe2Ge,-0.02999,0.0,na,0.5141,,,,,
JVASP-48251,Li2Ti2V3O10,-2.6952,0.0,0.0,0.092,,,,,
JVASP-68637,Be2ReBr,0.32979,0.0,na,0.9322,,,,,
JVASP-91738,CaFeSO,-1.76412,0.0,na,0.1631,,,,,
JVASP-48119,LiMn2F5,-2.5502,1.923,na,0.0459,,,,,
JVASP-91986,Li2FeCoO4,-1.71555,0.0,na,0.0275,,,,,
JVASP-90165,Ce2Mn2Se2O3,-2.12701,0.0,na,0.0944,,,,,
JVASP-67848,BeCoCu2,0.0624,0.0,na,0.2204,,,,,
JVASP-67524,MnBe2Bi,0.59449,0.0,na,0.7708,,,,,
JVASP-75628,ReTeAs,0.42791,0.0,0.0,0.4436,,,,,
JVASP-69808,TiBeCu,0.1527,0.0,na,0.3431,,,,,
JVASP-68462,Sr2BeP,-0.08627,0.0,0.0,0.5239,,,,,
JVASP-67647,BeSiBr,0.24624,0.0,0.0,0.7823,,,,,
JVASP-75851,NaAsRh2,0.13273,0.0,na,0.4869,,,,,
JVASP-68214,BeCrTe2,0.08177,0.0,0.0,0.3626,,,,,
JVASP-73957,Ti2BePb,0.21346,0.0,na,0.3321,,,,,
JVASP-70197,SrBeNi,-0.04065,0.0,na,0.271,,,,,
JVASP-94205,Mg6CuSi,0.05109,0.0,na,0.1814,,,,,
JVASP-85918,CaPt2O4,-1.36004,0.0,na,0.0823,,,,,
JVASP-87095,K2MnSe2,-0.96944,0.883,na,0.0,,,,,
JVASP-88329,PH4NO2F2,-1.46943,5.54,na,0.0,,,,,
JVASP-19927,TmPd3,-0.95268,0.0,na,0.0062,,,,,
JVASP-3783,Ca3AsBr3,-1.90693,1.565,2.176,0.0,,,,,
JVASP-86775,KCoAu3C6N6,0.18173,0.0,na,0.2797,,,,,
JVASP-75566,ZrSiAs,0.09307,0.0,na,0.8801,,,,,
JVASP-67607,NaBeGe,0.31087,0.0,na,0.4416,,,,,
JVASP-70024,Be2NiBr,0.58566,0.0,na,1.2322,,,,,
JVASP-75597,ZrMn2As,0.05003,0.0,0.0,0.6391,,,,,
JVASP-75824,BeZn2As,0.42264,0.0,na,0.4915,,,,,
JVASP-68276,Ta2BeGe,0.14965,0.0,na,0.4586,,,,,
JVASP-69931,Be2ZnCr,0.14656,0.0,na,0.3036,,,,,
JVASP-67773,CaBeBr,-0.28063,0.0,0.0,0.8552,,,,,
JVASP-74045,Mn2BeCo,-0.07766,0.0,na,0.0804,,,,,
JVASP-18662,CeTlPd,-0.58567,0.0,na,0.0,,,,,
JVASP-88005,BaNi9P5,-0.64941,0.0,na,0.0,,,,,
JVASP-90763,LaMg3,-0.13058,0.0,na,0.0008,,,,,
JVASP-88799,Na2TeO4,-1.53611,1.915,na,0.0,,,,,
JVASP-18875,BaPt,-0.86418,0.0,na,0.0,,,,,
JVASP-86667,ZrAlPt,-1.08156,0.0,na,0.0153,,,,,
JVASP-93169,SrLiMg6,0.02448,0.0,na,0.1157,,,,,
JVASP-86494,NdCoSi2,-0.71775,0.0,na,0.0,,,,,
JVASP-69646,NaBe2Ir,0.34231,0.0,na,0.6538,,,,,
JVASP-68076,Hf2BeBr,-0.00022,0.0,na,0.5055,,,,,
JVASP-86197,Mg3Bi2,-0.26668,0.007,na,0.0004,,,,,
JVASP-42631,Li2FeP2O7,-2.16012,0.03,na,0.0549,,,,,
JVASP-48720,NaNi2O3,-1.14321,0.0,0.0,0.0147,,,,,
JVASP-14598,Y,1e-05,0.0,0.0,0.0,,,,,
JVASP-75712,NaAsIr2,0.36491,0.0,na,0.6388,,,,,
JVASP-92253,LiCuS2,-0.63089,0.467,na,0.0805,,,,,
JVASP-85432,UCo2P2,-0.80869,0.0,na,0.0,,,,,
JVASP-75746,Si2AsP,0.68403,0.0,na,0.7869,,,,,
JVASP-51292,MnAlTc,0.49193,0.0,0.0,0.7619,,,,,
JVASP-68017,BeCoRh2,-0.11417,0.0,0.0,0.1883,,,,,
JVASP-75853,NaRe2As,0.57755,0.0,na,0.8042,,,,,
JVASP-92246,EuAgO2,-2.39978,2.719,3.256,0.0,,,,,
JVASP-68828,Be2NiBi,0.30514,0.0,na,0.5628,,,,,
JVASP-85998,AuCClO,-0.44867,2.758,3.28,0.1388,,,,,
JVASP-86427,K2UO4,-2.87453,2.112,2.068,0.0,,,,,
JVASP-47540,BeCo2O4,-1.62142,0.616,na,0.0638,,,,,
JVASP-90622,LiLaBi2,-0.79547,0.0,na,0.0,,,,,
JVASP-75670,CdFe2As,0.51778,0.004,na,0.6161,,,,,
JVASP-90578,Mg3Sn,-0.11467,0.0,na,0.0779,,,,,
JVASP-91517,ErTe3,-0.90085,0.0,na,0.0,,,,,
JVASP-91557,K2CdSn,-0.29727,0.059,na,0.015,,,,,
JVASP-75781,MgAsIr2,0.14009,0.0,0.0,0.5296,,,,,
JVASP-18441,U2BiN2,-1.26211,0.0,0.0,0.0,,,,,
JVASP-91935,ReC,0.59436,0.0,na,0.6222,,,,,
JVASP-74129,BeCu2Br,0.27573,0.0,0.0,0.7039,,,,,
JVASP-50813,Li4SbS4,-1.01952,0.0,na,0.0899,,,,,
JVASP-92886,Mg6MoW,0.30837,0.0,na,0.378,,,,,
JVASP-70425,YBe2P,-0.12219,0.0,na,0.7592,,,,,
JVASP-88107,SiO2,-2.60857,3.668,na,0.2927,,,,,
JVASP-69935,SrCaBe,0.39977,0.0,na,0.4559,,,,,
JVASP-86319,Li3P,-0.78963,0.901,na,0.0,,,,,
JVASP-69811,Be2CuCl,0.14677,0.0,na,0.7883,,,,,
JVASP-67691,KBeTc2,1.22703,0.0,na,1.3113,,,,,
JVASP-91838,NdAl4Ge2Au,-0.50115,0.0,na,0.0,,,,,
JVASP-87030,RbMo3S3,-0.89656,0.0,na,0.0,,,,,
JVASP-67774,Li4ZrBe,0.36422,0.0,na,0.4144,,,,,
JVASP-68342,BeBiCl2,0.22954,0.0,0.0,1.3489,,,,,
JVASP-69730,Be2GePt,-0.09006,0.0,na,0.3791,,,,,
JVASP-75854,TeAsRu,-0.00397,0.0,na,0.3698,,,,,
JVASP-68761,Be2SbPb,0.64571,0.0,na,0.6457,,,,,
JVASP-88488,KV2CrO7,-2.42209,0.502,na,0.0052,,,,,
JVASP-89240,LiScGeO4,-2.65544,4.007,na,0.0068,,,,,
JVASP-68524,LiBeNi,-0.00964,0.0,na,0.3023,,,,,
JVASP-75487,MoAsIr2,0.1835,0.0,0.0,0.5676,,,,,
JVASP-70025,Be2ZnBr,0.84175,0.0,na,1.2426,,,,,
JVASP-70200,Be2CoSe,0.18638,0.0,na,0.8096,,,,,
JVASP-68638,BeHgSb2,0.64089,0.0,na,0.6409,,,,,
JVASP-53921,Na2LiAlH6,-0.31386,2.989,na,0.0033,,,,,
JVASP-42274,Mn6O7F5,-2.02297,0.0,na,0.0,,,,,
JVASP-94126,Mg6CoMo,0.23175,0.0,na,0.2473,,,,,
JVASP-75782,ReSbAs,0.48245,0.0,na,0.4983,,,,,
JVASP-70279,Be2NbBr,0.7808,0.0,0.0,1.3231,,,,,
JVASP-68463,CaBe2Tl,0.48248,0.0,na,0.7675,,,,,
JVASP-68902,MnBe2Cd,0.19142,0.0,na,0.3703,,,,,
JVASP-39306,KV5Se8,-0.8168,0.0,0.0,0.0,,,,,
JVASP-67574,BeGeTe,0.45256,0.0,0.0,0.7346,,,,,
JVASP-42785,Li2V3CrO8,-2.43966,0.0,na,0.0284,,,,,
JVASP-52894,SiPd2,-0.60639,0.0,na,0.0,,,,,
JVASP-75671,MgMo2As,0.22837,0.0,na,0.5679,,,,,
JVASP-69871,BeZnP,-0.00067,0.0,na,0.1718,,,,,
JVASP-70426,Li2BeCl2,-0.75434,2.386,na,0.833,,,,,
JVASP-70490,Be2HgSb,0.48673,0.0,na,0.4867,,,,,
JVASP-69473,Be2InSb,0.6626,0.0,na,0.7094,,,,,
JVASP-70566,MnBe2Si,0.27678,0.0,na,0.4834,,,,,
JVASP-67730,LiBeCo,0.04201,0.0,0.0,0.253,,,,,
JVASP-70109,Be2CoCl,0.54483,0.0,0.0,1.3071,,,,,
JVASP-43333,Li2Mn3CoO8,-1.91342,0.0,na,0.0086,,,,,
JVASP-68829,Be2BiTe,0.69603,0.0,na,0.9076,,,,,
JVASP-86716,BaCu2P4,-0.50705,0.0,na,0.0,,,,,
JVASP-91698,ErAgS2,-1.42412,0.929,na,0.0017,,,,,
JVASP-86554,HgCSO3F3,-1.20003,3.362,4.648,0.1466,,,,,
JVASP-75631,ZrZnAs,0.08827,0.008,0.0,0.8738,,,,,
JVASP-68525,MnBe2Hg,0.30633,0.0,na,0.4827,,,,,
JVASP-67330,Be2ZnFe,0.03928,0.0,na,0.241,,,,,
JVASP-69937,Be2TlP,0.52103,0.0,na,0.6501,,,,,
JVASP-69647,Be2InBi,0.51461,0.0,na,0.5159,,,,,
JVASP-75599,Cu2GeAs,0.36006,0.0,na,0.3851,,,,,
JVASP-67950,BeGaRu2,0.03562,0.0,na,0.2996,,,,,
JVASP-85656,UGa6Fe6,-0.17911,0.0,na,0.0039,,,,,
JVASP-68706,LiBeSe2,-0.24086,0.0,na,0.7491,,,,,
JVASP-75488,Be2AsSe,0.87248,0.0,na,1.3483,,,,,
JVASP-68641,ScBeW,0.23621,0.0,na,0.5055,,,,,
JVASP-74135,BeV2Co,-0.08444,0.0,0.0,0.1551,,,,,
JVASP-70349,CaBe2Ru,0.45436,0.0,na,0.7284,,,,,
JVASP-90851,YCu,-0.32417,0.0,na,0.0,,,,,
JVASP-75672,AsIrRu2,0.46019,0.0,na,0.6512,,,,,
JVASP-75825,Cr2AsPt,0.20605,0.0,na,0.4282,,,,,
JVASP-69474,Sr2BeTc2,1.00377,0.0,na,1.0695,,,,,
JVASP-75567,Nb2CoAs,0.17733,0.025,0.0,0.5997,,,,,
JVASP-94069,Mg6TiV,0.24251,0.0,na,0.2425,,,,,
JVASP-85527,Eu2GeSe4,-1.33956,0.714,na,0.0,,,,,
JVASP-67895,BeTc2Ni,-0.03174,0.0,0.0,0.202,,,,,
JVASP-21215,S,0.0,1.957,2.965,0.0,,,,,
JVASP-67849,BeMoRu2,0.03064,0.0,0.0,0.1973,,,,,
JVASP-74046,ScBeZn,-0.23289,0.0,0.0,0.0877,,,,,
JVASP-69562,BeV2Sn2,0.62018,0.0,na,0.7046,,,,,
JVASP-67810,BeNbCr,0.25125,0.0,0.0,0.3937,,,,,
JVASP-70428,TiBeTc,0.14985,0.0,na,0.5481,,,,,
JVASP-22727,TiFe2Si,-0.67762,0.286,na,0.0,,,,,
JVASP-94208,Mg6FeSb,0.09288,0.0,na,0.228,,,,,
JVASP-73958,BeNb2Br,0.22883,0.0,0.0,0.6768,,,,,
JVASP-69873,Be2VPd,-0.24052,0.0,na,0.1155,,,,,
JVASP-87167,ErNiO3,-2.4536,0.0,na,0.009,,,,,
JVASP-43813,Li2MnCo3O8,-1.57553,0.0,0.0,0.0712,,,,,
JVASP-3294,K3Cu3As2,-0.38482,1.363,1.552,0.0,,,,,
JVASP-92926,Mg6BW,0.36172,0.0,na,0.5041,,,,,
JVASP-75632,MgZnAs,-0.11258,0.0,na,0.3116,,,,,
JVASP-68345,Be2Cd2Sn,0.41484,0.0,na,0.4188,,,,,
JVASP-91889,Mg7Co,0.10876,0.0,na,0.1202,,,,,
JVASP-75747,TiAsPd2,-0.48318,0.0,na,0.1542,,,,,
JVASP-68466,Be2FeBi,0.41057,0.0,na,0.6123,,,,,
JVASP-75713,AsP2W,0.52622,0.0,na,0.8024,,,,,
JVASP-68587,BeCu2Cl,0.32781,0.0,na,0.9148,,,,,
JVASP-68020,BeGeRu2,0.09144,0.0,na,0.3546,,,,,
JVASP-69812,Be2HgTe,0.56234,0.0,na,0.7739,,,,,
JVASP-67692,NaBeW2,0.66035,0.0,na,0.9784,,,,,
JVASP-94745,CaMg6Mn,0.13836,0.0,na,0.1915,,,,,
JVASP-69651,Be2SbIr,0.24815,0.0,na,0.6562,,,,,
JVASP-70570,SrMnBe2,0.36635,0.0,na,0.5427,,,,,
JVASP-85844,Sm2Fe17,0.03226,0.0,na,0.0519,,,,,
JVASP-68903,Be2SiSe,0.56378,0.0,na,1.0301,,,,,
JVASP-48497,NaMnO4,-1.57847,1.748,2.086,0.0129,,,,,
JVASP-68762,Be2GaP,0.28548,0.0,na,0.501,,,,,
JVASP-75673,ZnMo2As,0.35051,0.0,na,0.4993,,,,,
JVASP-75826,GaAsAu,0.02022,0.0,na,0.2433,,,,,
JVASP-70203,HfBe2V,0.18723,0.0,na,0.3541,,,,,
JVASP-67575,Be2PbCl,0.64805,0.0,na,1.2077,,,,,
JVASP-68078,NaBeRh2,0.29364,0.0,0.0,0.5962,,,,,
JVASP-91741,BaAlGeF,-1.8399,0.0,na,0.0,,,,,
JVASP-67608,BeInCl,0.05004,0.0,0.0,0.798,,,,,
JVASP-75856,TiAsW2,-0.07668,0.0,na,0.6705,,,,,
JVASP-93104,CeMg6Cr,0.23439,0.0,na,0.2422,,,,,
JVASP-68279,BeV2Cu,0.16176,0.0,na,0.2376,,,,,
JVASP-94815,BaCrF6,-3.23392,0.0,na,0.0,,,,,
JVASP-68215,BeRu2Rh,0.031,0.0,0.0,0.3306,,,,,
JVASP-68707,TiBe2Pb,0.3648,0.0,0.0,0.544,,,,,
JVASP-90166,CaU2P2O4,-1.92802,0.0,na,0.7603,,,,,
JVASP-70491,ScBe2Sn,0.13991,0.0,na,0.4691,,,,,
JVASP-91600,PrAu,-0.85791,0.0,na,0.0012,,,,,
JVASP-51043,Mn3GaN,-0.31578,0.0,na,0.0,,,,,
JVASP-3786,K2MnCl6,-1.49576,0.99,na,0.0,,,,,
JVASP-15393,AgAsSe2,-0.09233,0.0,na,0.0191,,,,,
JVASP-70765,BeIr2Br,0.39879,0.0,na,0.8767,,,,,
JVASP-86146,HfAl3,-0.39908,0.0,na,0.0,,,,,
JVASP-68164,BeTc2Pd,0.08173,0.0,0.0,0.3619,,,,,
JVASP-68831,BeZnGa,0.23029,0.0,0.0,0.2303,,,,,
JVASP-50415,Ba3SrI8,-1.82967,3.23,na,0.0438,,,,,
JVASP-70351,BePdW,-0.05172,0.0,0.0,0.5074,,,,,
JVASP-42981,Li5Nb2V3O10,-2.39325,0.0,na,0.1307,,,,,
JVASP-67775,BePCl,0.18862,0.0,0.0,0.9922,,,,,
JVASP-86894,PtN2,0.38004,1.102,na,0.3904,,,,,
JVASP-90807,NaAsF6,-2.42171,5.178,7.014,0.0,,,,,
JVASP-86495,CeSi2Au2,-0.53976,0.0,na,0.0,,,,,
JVASP-68526,Be2BiPd,0.15382,0.0,na,0.4761,,,,,
JVASP-90704,K2BiAu,-0.49702,1.053,na,0.0,,,,,
JVASP-75633,AsRuW2,0.15757,0.0,na,0.5764,,,,,
JVASP-85355,Ba3Nb2CoO9,-2.80796,0.0,0.0,0.0087,,,,,
JVASP-91987,PrHg3,-0.24202,0.0,na,0.0,,,,,
JVASP-1978,Sr2BrN,-1.4992,1.993,na,0.0269,,,,,
JVASP-48440,Li2TiNiO4,-2.29521,0.673,na,0.0491,,,,,
JVASP-86090,U6Mn,0.00409,0.0,na,0.0204,,,,,
JVASP-86272,Nb2C,-0.48502,0.0,na,0.0,,,,,
JVASP-14797,CoAs,-0.26211,0.0,na,0.0095,,,,,
JVASP-92192,LiMg3O4,-2.57952,0.0,0.0,0.1027,,,,,
JVASP-3351,RbYTe2,-1.48999,1.381,1.75,0.0,,,,,
JVASP-95770,EuGe,-0.89566,0.0,na,0.0,,,,,
JVASP-93170,LiMg6Si,0.00127,0.0,na,0.1213,,,,,
JVASP-90764,HfMg,0.95549,0.0,na,0.9555,,,,,
JVASP-75748,GeAsRu2,0.41848,0.0,na,0.6772,,,,,
JVASP-75783,AsOsBr,1.88957,0.0,0.0,2.1453,,,,,
JVASP-75714,AsIr2Ru,0.43447,0.0,na,0.6315,,,,,
JVASP-87032,As3Rh,-0.38975,0.0,na,0.0,,,,,
JVASP-13889,USnPd,-0.4091,0.0,na,0.0292,,,,,
JVASP-91651,UCuSb2,-0.21703,0.0,na,0.0,,,,,
JVASP-52356,BaSrO2,-2.82633,2.269,3.728,0.0737,,,,,
JVASP-75489,TeAsRh,-0.19717,0.0,na,0.2267,,,,,
JVASP-68346,BeSb2Ru,-0.01046,0.0,na,0.1988,,,,,
JVASP-70283,Be2GaPd,-0.20065,0.0,na,0.1759,,,,,
JVASP-67648,BeCrW,0.10788,0.0,na,0.3982,,,,,
JVASP-69735,Be2ZnW,0.13779,0.0,0.0,0.3502,,,,,
JVASP-75827,Zn2CuAs,0.18736,0.0,na,0.2949,,,,,
JVASP-75784,MgVAs,0.41,0.019,na,0.9859,,,,,
JVASP-75600,MoAsPt2,0.01758,0.0,na,0.4214,,,,,
JVASP-69876,NaLiBe2,0.52732,0.0,na,0.5383,,,,,
JVASP-48255,LiFe3O6,-1.54479,0.0,na,0.0699,,,,,
JVASP-70205,Be2CoCu,-0.06359,0.0,na,0.1836,,,,,
JVASP-92887,Mg6CdMo,0.15445,0.0,na,0.1947,,,,,
JVASP-89898,ScCuGe,-0.67189,0.0,na,0.0,,,,,
JVASP-86776,Be12Nb,-0.14363,0.0,na,0.0,,,,,
JVASP-48721,Li2CoSiO4,-2.19997,0.406,na,0.0851,,,,,
JVASP-86430,BaMo6S8,-1.00027,0.0,na,0.0,,,,,
JVASP-75634,AsPRh2,0.30783,0.0,na,0.0,,,,,
JVASP-70110,Be2CuNi,-0.14261,0.0,na,0.1458,,,,,
JVASP-69940,Be2SnSb,0.66124,0.0,na,0.6665,,,,,
JVASP-16143,LuGeAu,-0.7901,0.0,na,0.0,,,,,
JVASP-22680,K2H4Pd,-0.32612,2.872,2.908,0.0,,,,,
JVASP-50354,TaCuO3,-2.25044,1.658,na,0.0371,,,,,
JVASP-86347,Ge,0.24923,0.0,na,0.0,,,,,
JVASP-68527,Be2WCl,0.24679,0.0,na,1.0006,,,,,
JVASP-70805,SrBePb4,0.27013,0.0,na,0.554,,,,,
JVASP-70572,NaBe2Mo,0.45426,0.0,na,0.6782,,,,,
JVASP-91788,HoCoGe2,-0.62378,0.0,na,0.0,,,,,
JVASP-48122,Fe2O3F,-1.54243,0.0,0.0,0.0913,,,,,
JVASP-87900,ErCrO3,-3.06082,1.094,na,0.0,,,,,
JVASP-86671,Dy5BiAu2,-0.33952,0.0,na,0.396,,,,,
JVASP-12174,CoTeO4,-0.84264,0.0,na,0.2498,,,,,
JVASP-68904,Be2MoOs,0.01041,0.0,na,0.2313,,,,,
JVASP-70726,Hf2BeSi2,-0.04429,0.0,na,0.6162,,,,,
JVASP-70027,BeFe2Si2,0.10722,0.0,0.0,0.4564,,,,,
JVASP-17258,TiO2,-0.41758,0.0,na,2.8456,,,,,
JVASP-42632,Li2MnSi2O6,-2.52839,2.694,na,0.0155,,,,,
JVASP-86320,RbN3,-0.21489,4.298,na,0.0,,,,,
JVASP-88801,TlBO2,-1.95304,3.049,na,0.0,,,,,
JVASP-16018,SmCuSi,-0.64448,0.0,na,0.0,,,,,
JVASP-75716,Cu2AsAu,0.22941,0.0,na,0.2617,,,,,
JVASP-14967,NbB,-0.72785,0.0,0.0,0.0,,,,,
JVASP-15352,HoNi2Ge2,-0.68029,0.0,na,0.0,,,,,
JVASP-86199,MgBIr,-0.45978,0.0,na,0.0,,,,,
JVASP-86007,Co2GeO4,-1.22782,0.0,na,0.0893,,,,,
JVASP-48915,Li2MnOF3,-2.61551,0.0,0.0,0.0,,,,,
JVASP-70651,MgBe2Os,0.0198,0.0,0.0,0.028,,,,,
JVASP-68080,BeZn2Ge,0.26485,0.0,na,0.2648,,,,,
JVASP-68351,Be2CrBr,0.51752,0.0,na,1.0361,,,,,
JVASP-70492,Be2CuPt,-0.29729,0.0,na,0.1508,,,,,