jid,formula,formation_energy_per_atom,optb88vdw_bandgap,mbj_bandgap,ehull,spacegroup_number,natoms,volume,bulk_modulus_kv,shear_modulus_gv
JVASP-107343,DySbTe3,-0.77218,0.874,1.02,0.02,,,,,
JVASP-107454,LaCeHg2,-0.35173,0.0,na,0.0,,,,,
JVASP-106402,TmAlO3,-3.58848,3.763,na,0.0725,,,,,
JVASP-15373,TbScGe,-0.75521,0.0,0.0,0.0,,,,,
JVASP-101995,H3C3O2,-0.42607,3.278,na,0.2586,,,,,
JVASP-107683,PaFe3,-0.07773,0.0,na,0.0,,,,,
JVASP-107508,TlBiTeSe,-0.24108,0.0,0.0,0.1495,,,,,
JVASP-106908,K2HgBiBr6,-1.00214,0.0,na,0.0986,,,,,
JVASP-107631,Rb3ScBr6,-1.82787,3.241,na,0.0,,,,,
JVASP-104966,CePdRh2,-0.71266,0.0,na,0.0236,,,,,
JVASP-106474,BaO,-2.70243,2.112,na,0.0719,,,,,
JVASP-105518,ErGa2Cu3,-0.36697,0.0,0.0,0.0,,,,,
JVASP-102838,LiMnF3,-2.70272,2.397,na,0.0146,,,,,
JVASP-107014,ZrNb2VC4,-0.59676,0.0,na,0.0643,,,,,
JVASP-104803,K2LiSbF6,-2.82037,4.225,na,0.0503,,,,,
JVASP-105083,RbInF3,-2.62426,2.32,3.145,0.0,,,,,
JVASP-102671,TbCuNi4,-0.36247,0.0,0.0,0.0,,,,,
JVASP-44507,Li2MnBAsO7,-1.91109,1.252,na,0.1149,,,,,
JVASP-42482,CuS2,-0.19977,0.0,na,0.0,,,,,
JVASP-3030,K2PAu,-0.58385,0.956,1.749,0.0,,,,,
JVASP-13323,Nd5CuSe8,-1.72195,1.006,1.006,0.0,,,,,
JVASP-18568,CaAl2Zn2,-0.36311,0.0,na,0.0,,,,,
JVASP-50206,Ho2TeO6,-2.67904,2.666,3.838,0.0,,,,,
JVASP-104918,TiMo2S4,-0.99961,0.0,na,0.0709,,,,,
JVASP-105224,Nd3Sc,0.0362,0.0,na,0.0362,,,,,
JVASP-15069,YbAu,-1.07953,0.0,0.0,0.0037,,,,,
JVASP-104119,H8C15S3,0.10575,0.942,na,0.1905,,,,,
JVASP-101921,ZnH14C9O4,-0.41483,4.421,na,0.0951,,,,,
JVASP-15585,ErCo2Ge2,-0.60319,0.0,na,0.0,,,,,
JVASP-54765,MnHO2,-1.47628,0.0,0.0,0.0068,,,,,
JVASP-106683,ZrMnNi,-0.30255,0.0,na,0.0568,,,,,
JVASP-53450,In4SnS8,-0.55882,0.303,1.387,0.0058,,,,,
JVASP-106741,Sn2SeS,-0.52603,0.715,0.853,0.0015,,,,,
JVASP-102527,LiSmIn2,-0.44266,0.0,0.0,0.0061,,,,,
JVASP-15806,CaZn2Sb2,-0.48603,0.0,0.409,0.0,,,,,
JVASP-29031,Te4MoW3Se2S2,-0.33606,0.23,na,0.2117,,,,,
JVASP-18933,NbCo2,-0.16891,0.0,0.0,0.0267,,,,,
JVASP-104641,KCaI3,-1.69042,3.559,4.288,0.0,,,,,
JVASP-106849,Ba2MnNbO6,-2.8103,0.0,na,0.0,,,,,
JVASP-103816,H2C2SO2,-0.3652,2.68,na,0.3471,,,,,
JVASP-48138,Mn3O5F,-1.90293,0.0,na,0.0,,,,,
JVASP-12879,Ba4P2O,-1.58254,0.946,na,0.0,,,,,
JVASP-51117,InP2Pb,0.51697,0.0,na,0.6291,,,,,
JVASP-54718,MoH2O4,-1.61065,3.043,3.609,0.0205,,,,,
JVASP-101827,H4C3SO,-0.0885,1.412,na,0.3048,,,,,
JVASP-107394,AcMnO3,-2.87296,0.0,0.0,0.0,,,,,
JVASP-106963,LiZnPt2,-0.63952,0.0,0.0,0.0,,,,,
JVASP-18528,Tl2WCl6,-0.991,0.0,0.0,0.0,,,,,
JVASP-16215,HfAs,-1.00665,0.0,na,0.0,,,,,
JVASP-105085,Tl2Cl3,-0.8056,0.0,na,0.0948,,,,,
JVASP-102468,Ce2HgPb,-0.34967,0.0,na,0.0,,,,,
JVASP-106512,GaGe3,0.26418,0.0,na,0.2673,,,,,
JVASP-101960,CdH12C8O4,-0.42266,4.115,na,0.0988,,,,,
JVASP-107237,ZnOs,0.20725,0.0,na,0.2072,,,,,
JVASP-15374,LaCo2P2,-1.01274,0.0,na,0.0,,,,,
JVASP-102626,ErFe2SiC,-0.59578,0.0,na,0.0,,,,,
JVASP-107457,TbLi3,0.18539,0.0,na,0.1861,,,,,
JVASP-107632,Rb3ScCl6,-2.14272,4.055,na,0.0,,,,,
JVASP-107294,Sc2AlCo3,-0.48575,0.0,na,0.035,,,,,
JVASP-107567,CrRe5B2,-0.18493,0.0,na,0.0092,,,,,
JVASP-58040,Ba2TlFe2O7,-1.66366,0.0,na,0.241,,,,,
JVASP-44060,Li2Fe3WO8,-1.81937,0.0,0.0,0.0921,,,,,
JVASP-105131,CaPr3,0.05045,0.0,na,0.0644,,,,,
JVASP-106476,PbClF,-1.82535,3.18,na,0.114,,,,,
JVASP-1654,RbPrS2,-1.98993,2.205,3.332,0.0,,,,,
JVASP-44750,Li2Ni3WO8,-1.59668,0.0,na,0.056,,,,,
JVASP-103698,MnCo2Si,-0.24166,0.0,na,0.1063,,,,,
JVASP-16032,AgO,0.11071,0.0,0.0,0.3341,,,,,
JVASP-102579,Y2ZnGa,-0.56323,0.0,0.0,0.0,,,,,
JVASP-104157,H6C9SO,-0.0179,1.449,na,0.2224,,,,,
JVASP-103881,TiH14C9O6,-0.56367,0.179,na,0.2145,,,,,
JVASP-106620,Y2ZnRh,-0.67078,0.0,0.0,0.0,,,,,
JVASP-18961,Dy2S3,-2.25693,0.632,1.513,0.0,,,,,
JVASP-13064,Tl2Au4S3,-0.2711,1.14,1.578,0.0,,,,,
JVASP-15171,SrCu2Ge2,-0.41023,0.0,na,0.0,,,,,
JVASP-52221,Li2AgF3,-2.35719,1.614,3.362,0.1229,,,,,
JVASP-105363,TmNiGe,-0.76353,0.0,0.0,0.0666,,,,,
JVASP-105226,NdSmIn2,-0.51978,0.0,na,0.0003,,,,,
JVASP-4630,TlPt2S3,-0.4849,1.064,1.256,0.0,,,,,
JVASP-106792,La2MgZrO6,-3.45768,3.125,na,0.1562,,,,,
JVASP-15520,MnNi2Sb,-0.03629,0.0,0.0,0.113,,,,,
JVASP-103943,ZrH4C4O4,-0.54717,0.0,na,0.7681,,,,,
JVASP-104589,LiAcRh2,-0.40999,0.158,0.157,0.0,,,,,
JVASP-105443,MnAlPd2,-0.50414,0.0,na,0.1105,,,,,
JVASP-106684,ZrScNi2Sn2,-0.69166,0.0,na,0.0,,,,,
JVASP-18437,NaAlSi,-0.14742,0.0,na,0.0,,,,,
JVASP-104749,CeSm3S4,-2.1936,0.0,na,0.0,,,,,
JVASP-101880,SnH22C12O4,-0.30394,4.598,na,0.1097,,,,,
JVASP-102783,CdTe2Pb,-0.33117,0.0,0.0,0.0882,,,,,
JVASP-106909,K2GaHgF6,-2.45761,0.0,1.253,0.1035,,,,,
JVASP-15722,NaTiO2,-2.68154,0.0,3.951,0.0,,,,,
JVASP-18461,UBrN,-1.62375,0.0,0.0,0.0,,,,,
JVASP-104856,LiMgIn2,-0.21935,0.0,0.0,0.0,,,,,
JVASP-1264,K2O,-1.2572,2.034,5.371,0.0003,,,,,
JVASP-106477,PBr,-0.14805,0.589,na,0.0854,,,,,
JVASP-102469,CeTm3,0.05663,0.0,na,0.0568,,,,,
JVASP-107684,PaZnNi2,-0.35064,0.0,na,0.0,,,,,
JVASP-3486,CdIn2Te4,-0.35085,0.715,1.715,0.0,,,,,
JVASP-107458,LiCl,-1.98079,5.982,na,0.0033,,,,,
JVASP-19062,SrZrO3,-3.57492,3.592,4.493,0.0184,,,,,
JVASP-22689,Ba2H6Ru,-0.58153,1.854,2.152,0.0,,,,,
JVASP-106404,Rb2LiNbF6,-2.9873,0.0,1.152,0.0407,,,,,
JVASP-107069,CrFeB2,-0.38531,0.0,na,0.0305,,,,,
JVASP-106850,AlNiGe,-0.44168,0.0,na,0.0005,,,,,
JVASP-107296,PrBrCl2,-2.29922,3.932,na,0.0,,,,,
JVASP-105132,Ca2PbAu,-0.76095,0.0,na,0.0,,,,,
JVASP-105289,PrCdAu,-0.70447,0.0,na,0.0,,,,,
JVASP-107344,DyErTe2,-1.28325,0.0,0.0,0.0,,,,,
JVASP-107136,Na2HgPdF6,-1.76201,0.0,1.466,0.2401,,,,,
JVASP-102728,LaGe2PdRh,-0.89236,0.0,na,0.009,,,,,
JVASP-107183,Li2TlCd,-0.30668,0.0,0.0,0.0,,,,,
JVASP-107397,KNa2RuF6,-2.29497,0.0,na,0.215,,,,,
JVASP-16216,AlCr2C,-0.19861,0.0,0.0,0.0,,,,,
JVASP-2487,NaMgAs,-0.70977,1.157,2.227,0.0222,,,,,
JVASP-106621,Y3Ga,-0.27844,0.0,na,0.0897,,,,,
JVASP-18509,Ag8S,0.15629,0.0,0.0,0.1815,,,,,
JVASP-14279,Mn3N2,-0.24683,0.0,na,0.1295,,,,,
JVASP-102580,Xe,-0.02384,6.07,7.697,0.0,,,,,
JVASP-105088,KCuIO6,-0.64619,0.0,na,0.1132,,,,,
JVASP-42210,Tb5O9,-3.268,0.0,na,0.1294,,,,,
JVASP-104967,CeU2O6,-3.68258,0.0,na,0.0,,,,,
JVASP-49759,BaNdO3,-2.81873,0.0,na,0.1539,,,,,
JVASP-107633,Rb2TlAsF6,-2.4329,2.682,3.452,0.0,,,,,
JVASP-101828,H2C4S2O,-0.02419,0.477,na,0.313,,,,,
JVASP-16913,SbO2,0.29754,0.0,na,1.7986,,,,,
JVASP-21559,SrSO4,-2.35735,6.523,na,0.0,,,,,
JVASP-107459,LiLuIn2,-0.39648,0.0,na,0.0,,,,,
JVASP-104919,ThAl2Co3,-0.45398,0.0,na,0.0982,,,,,
JVASP-19884,ZnPt,-0.5543,0.0,0.0,0.0,,,,,
JVASP-104804,K2TlAuF6,-1.99489,0.0,0.0,0.1204,,,,,
JVASP-101882,SnH4C3O6,-0.9278,3.22,na,0.1666,,,,,
JVASP-18640,TlBi2,-0.01852,0.0,na,0.0,,,,,
JVASP-22606,MnSnF6,-2.25009,0.0,0.0,0.2746,,,,,
JVASP-32151,H6PbCNCl3,-0.58891,2.738,3.58,0.0515,,,,,
JVASP-2250,TbAgTe2,-0.93079,0.869,1.297,0.0,,,,,
JVASP-105227,Pa,-0.09086,0.0,na,0.0,,,,,
JVASP-106562,MgPd3,-0.50721,0.0,0.0,0.002,,,,,
JVASP-15070,InTe,-0.10476,0.0,na,0.2085,,,,,
JVASP-104120,H6C11S2O,0.05383,1.496,na,0.2593,,,,,
JVASP-106964,LiScIn2,-0.40113,0.0,0.0,0.0,,,,,
JVASP-14688,SiPd,-0.45199,0.0,0.0,0.004,,,,,
JVASP-107569,CeZnAgP2,-0.6904,0.005,0.0,0.0228,,,,,
JVASP-106742,Sn2PdAu,-0.3472,0.0,0.0,0.0,,,,,
JVASP-106686,ZnHgTe2,-0.20174,0.0,0.77,0.0326,,,,,
JVASP-104008,SnH12C6F2,-0.38634,4.476,na,0.1079,,,,,
JVASP-107238,Yb2ZnGe,-0.68197,0.0,0.0,0.0,,,,,
JVASP-103817,H3C2NO2,-0.306,4.086,na,0.3854,,,,,
JVASP-104642,Ho2CoSi2,-0.76009,0.0,na,0.0,,,,,
JVASP-52906,ZnH2O2,-1.22906,3.152,5.412,0.0051,,,,,
JVASP-105444,Mn3CoAs2,-0.09613,0.0,na,0.0713,,,,,
JVASP-104553,AlGaNi2,-0.50797,0.0,0.0,0.0081,,,,,
JVASP-21212,N,5.28329,2.557,na,0.0,,,,,
JVASP-15470,Hf2SnC,-0.79886,0.0,na,0.0,,,,,
JVASP-50207,Dy2TeO6,-2.66399,2.686,na,0.0,,,,,
JVASP-102529,Mg2IrRh,-0.45522,0.0,0.0,0.0,,,,,
JVASP-16008,TaSnO3,-2.15832,0.0,na,0.3009,,,,,
JVASP-16136,ZrSnTe,-0.6982,0.0,0.0,0.0,,,,,
JVASP-58244,Ba2CuTeO6,-1.93983,0.0,na,0.0152,,,,,
JVASP-103750,LiNi4O5,-1.02859,0.0,na,0.0332,,,,,
JVASP-106478,NaO,-0.90846,0.0,na,0.3521,,,,,
JVASP-19079,NaBO2,-2.4312,4.487,7.06,0.0,,,,,
JVASP-104750,CeGePd,-0.85963,0.0,na,0.0,,,,,
JVASP-103700,MnCr3Te4,0.00748,0.0,na,0.1473,,,,,
JVASP-106793,La2MgAl3,-0.47119,0.0,na,0.0,,,,,
JVASP-1657,RbNdS2,-1.99887,2.252,3.394,0.0,,,,,
JVASP-14735,SnP,-0.0332,0.0,0.0,0.0295,,,,,
JVASP-102470,DyErCd2,-0.34972,0.0,na,0.0,,,,,
JVASP-105089,Ba2CuS2Cl2,-1.68442,0.0,na,0.2056,,,,,
JVASP-102785,CdAsP,-0.0682,0.364,1.039,0.0198,,,,,
JVASP-101922,ZnH14C9O4,-0.41288,4.618,na,0.097,,,,,
JVASP-13324,Pr2UTe4,-1.17752,0.0,na,0.0254,,,,,
JVASP-102839,NaV3O6,-2.37578,0.0,na,0.0,,,,,
JVASP-107460,LiPm2Pb,-0.34213,0.0,0.0,0.0202,,,,,
JVASP-102672,SrZnIn3,-0.35038,0.0,0.0,0.0,,,,,
JVASP-4213,CaSn,-0.72991,0.0,0.0,0.0,,,,,
JVASP-18602,ErInAu,-0.75815,0.0,na,0.0,,,,,
JVASP-106910,K2HgBiF6,-2.24725,0.0,0.873,0.1829,,,,,
JVASP-105133,Cd3Ni,0.06519,0.0,na,0.0726,,,,,
JVASP-104694,SnSb,0.0258,0.0,0.0,0.0362,,,,,
JVASP-18957,Ti2Cu,-0.1292,0.0,0.0,0.0,,,,,
JVASP-107347,Cu4Br3Cl,-0.2013,0.125,na,0.1147,,,,,
JVASP-102627,CaAgSn,-0.58668,0.0,0.0,0.0,,,,,
JVASP-107634,Ba2CuS2Cl2,-1.87134,0.0,na,0.0187,,,,,
JVASP-105290,Er3Al3CoGe2,-0.77902,0.0,na,0.0,,,,,
JVASP-105519,Er2Ga3Ni,-0.67025,0.0,0.0,0.0,,,,,
JVASP-101829,H2C3SO2,-0.27559,1.044,na,0.3481,,,,,
JVASP-1513,TiCoSb,-0.65412,1.071,1.065,0.0,,,,,
JVASP-107137,K2NaRuF6,-2.56834,0.0,na,0.0,,,,,
JVASP-104968,CeMnAl,-0.25979,0.0,na,0.0,,,,,
JVASP-4143,KBiO2,-1.54377,2.002,3.309,0.0,,,,,
JVASP-104158,H4C6SO2,-0.17999,3.112,na,0.2824,,,,,
JVASP-42893,Er2ZnOs,-0.42279,0.0,na,0.0,,,,,
JVASP-76236,Er4InIr,-0.64364,0.0,na,0.0,,,,,
JVASP-107685,Pm2AgAu,-0.60002,0.0,0.0,0.0,,,,,
JVASP-105228,Pa3Cd,0.08277,0.0,na,0.1534,,,,,
JVASP-104921,TePb3Br2O4,-1.26667,1.898,na,0.0,,,,,
JVASP-104590,LiMgCd2,-0.24222,0.0,0.0,0.0,,,,,
JVASP-58075,Y2MgMn2S2O5,-2.37049,0.0,na,0.1915,,,,,
JVASP-15036,PaO,-2.63767,0.0,na,0.2949,,,,,
JVASP-106852,AlInCu2Se4,-0.56277,0.192,0.689,0.0,,,,,
JVASP-106563,MgScZn2,-0.36093,0.0,na,0.0,,,,,
JVASP-101883,SnH8C5O6,-0.70692,3.956,na,0.1607,,,,,
JVASP-104805,K2NaAuF6,-2.2319,0.565,1.844,0.0702,,,,,
JVASP-107398,Na2YAgF6,-2.85549,1.468,na,0.2873,,,,,
JVASP-15217,CeGa3Pd2,-0.67896,0.0,na,0.0,,,,,
JVASP-106794,KNbCl6,-1.49621,1.923,na,0.006,,,,,
JVASP-106514,Cu3Ru,0.27107,0.0,na,0.2711,,,,,
JVASP-105092,CuCl2,-0.30431,0.0,na,0.2249,,,,,
JVASP-18462,UIN,-1.44073,0.0,na,0.0,,,,,
JVASP-186,CrO2,-1.89099,0.0,0.0,0.2202,,,,,
JVASP-107510,TmAlGa,-0.57197,0.0,0.0,0.0,,,,,
JVASP-18529,Tl2MoCl6,-1.03728,0.0,0.0,0.0,,,,,
JVASP-107636,Na2CuI2Cl2,-1.0332,0.0,na,0.117,,,,,
JVASP-107184,KPb3,-0.13074,0.0,0.0,0.0468,,,,,
JVASP-4633,CdPS3,-0.45244,1.808,4.176,0.0,,,,,
JVASP-13329,Al2CoO4,-2.59261,0.743,na,0.0531,,,,,
JVASP-15723,CePPd,-1.20856,0.0,0.0,0.0,,,,,
JVASP-107070,Co2SiGe,-0.32128,0.0,0.0,0.0238,,,,,
JVASP-42484,NaCr2O4,-2.06223,0.0,0.0,0.099,,,,,
JVASP-18881,BiO2,-1.04917,0.0,0.0,0.1103,,,,,
JVASP-107570,CePrAl4,-0.496,0.0,na,0.0,,,,,
JVASP-12181,As2Se3,-0.10616,1.136,2.009,0.0331,,,,,
JVASP-2700,ThSeO,-3.12254,0.969,1.329,0.0,,,,,
JVASP-15521,YCo2Si2,-0.80617,0.0,0.0,0.0,,,,,
JVASP-3033,RbAuSe,-0.78399,1.966,2.936,0.0,,,,,
JVASP-101961,CdH14C9O4,-0.39031,3.88,na,0.0941,,,,,
JVASP-102673,TaV,0.07273,0.0,na,0.1479,,,,,
JVASP-18676,DyCu5,-0.21605,0.0,na,0.0,,,,,
JVASP-19840,NpTe,-0.71696,0.0,0.0,0.0,,,,,
JVASP-106745,SmCo4Cu,-0.11012,0.0,na,0.01,,,,,
JVASP-13732,YGe2,-0.54964,0.0,na,0.1181,,,,,
JVASP-106687,YbErSe2,-2.00096,0.0,0.0,0.0,,,,,
JVASP-103944,ZrH6C5O4,-0.57253,1.446,na,0.5292,,,,,
JVASP-15975,BaMg2Si2,-0.39608,0.0,na,0.0,,,,,
JVASP-51894,FeBiO3,-1.35554,0.0,na,0.0512,,,,,
JVASP-12984,NaErCl4,-2.21856,4.891,6.181,0.0,,,,,
JVASP-103752,MnTeO4,-1.33923,0.0,na,0.1222,,,,,
JVASP-106405,Rb2CuAuF6,-2.04139,0.0,na,0.0295,,,,,
JVASP-102729,LaAlCu4,-0.32994,0.0,na,0.0,,,,,
JVASP-14060,Yb2CdPd2,-0.84677,0.0,na,0.0,,,,,
JVASP-51202,InHgW2,0.88844,0.0,na,1.1682,,,,,
JVASP-104645,Ba2AgIO6,-1.65178,0.0,na,0.0,,,,,
JVASP-107399,K2NaErCl6,-2.18217,4.846,na,0.0,,,,,
JVASP-106920,Na3YI6,-1.21091,2.29,3.682,0.1985,,,,,
JVASP-105446,Mn4Hg3Au,0.4307,0.0,na,0.441,,,,,
JVASP-104969,Cd4Te5Pb,-0.3527,1.139,na,0.0605,,,,,
JVASP-104752,CeUFe4,-0.10589,0.0,na,0.0324,,,,,
JVASP-49902,Li2Ti3BiO8,-2.66096,0.0,0.0,0.1412,,,,,
JVASP-106622,Y3Sb,-0.48721,0.0,na,0.177,,,,,
JVASP-15218,FeCuS2,-0.33867,0.0,0.0,0.1378,,,,,
JVASP-15770,NdAl3Ni2,-0.63525,0.0,na,0.0,,,,,
JVASP-21236,CaCO3,-2.40366,4.24,na,0.0065,,,,,
JVASP-15672,NdNi2B2C,-0.50098,0.0,na,0.0,,,,,
JVASP-19080,Cd2GeO4,-1.4821,1.18,na,0.0,,,,,
JVASP-104121,H4C7S,0.19591,0.919,na,0.2869,,,,,
JVASP-106853,Ag2HgI4,-0.2074,0.9,1.602,0.0,,,,,
JVASP-106481,AcNiO3,-2.41043,0.0,na,0.0,,,,,
JVASP-107298,Ni6SnSb,-0.14562,0.0,0.0,0.0,,,,,
JVASP-14689,Pr,0.0,0.0,0.0,0.0,,,,,
JVASP-50969,Ta2CuO6,-2.44046,0.279,na,0.0893,,,,,
JVASP-104858,LiScRh2,-0.66971,0.0,0.0,0.0,,,,,
JVASP-102786,Ce2PrO6,-3.40546,0.0,na,0.0352,,,,,
JVASP-51162,SrMn2Si,0.58831,0.0,na,0.8803,,,,,
JVASP-103701,Mn2GaCu3,0.14317,0.0,na,0.1919,,,,,
JVASP-29032,TeMoWS3,-0.65247,0.098,na,0.1552,,,,,
JVASP-105529,CeZnAgAs2,-0.62544,0.0,0.0,0.0217,,,,,
JVASP-106516,Dy3Er,0.0104,0.0,na,0.015,,,,,
JVASP-105230,Pm2CuNi,-0.28964,0.0,na,0.0,,,,,
JVASP-102840,MnF4,-2.28572,0.049,na,0.0353,,,,,
JVASP-107571,CeU4N5,-1.58717,0.0,na,0.0,,,,,
JVASP-16914,MnS2,-0.35069,0.0,na,0.2774,,,,,
JVASP-104808,K2CeAgBr6,-1.52635,0.2,na,0.066,,,,,
JVASP-104160,H2C3O3,-0.65203,4.046,na,0.2163,,,,,
JVASP-48544,Li2VF4,-2.82485,1.493,na,0.1632,,,,,
JVASP-107138,Rb2NaIrF6,-2.49109,2.234,3.141,0.0,,,,,
JVASP-49762,Sr2CuO4,-2.04651,0.0,na,0.0,,,,,
JVASP-2253,Tm2SO2,-3.48666,3.208,4.733,0.0,,,,,
JVASP-107016,ZnCdAu2,-0.20903,0.0,0.0,0.0,,,,,
JVASP-105291,HoMgAg,-0.30816,0.0,na,0.0,,,,,
JVASP-16217,V2GeC,-0.49749,0.0,na,0.0,,,,,
JVASP-1660,RbSmS2,-2.0149,2.261,3.56,0.0,,,,,
JVASP-13333,Nd5AgSe8,-1.76477,1.462,1.715,0.0,,,,,
JVASP-12880,NaSbCl6,-0.99048,1.86,3.196,0.0,,,,,
JVASP-104695,SmMnCo3Cu,-0.04679,0.0,na,0.0812,,,,,
JVASP-106408,K3SbBr6,-1.29663,2.864,na,0.0733,,,,,
JVASP-1234,BaTiO3,-3.35196,1.749,2.169,0.0187,,,,,
JVASP-102581,Y2TlIn,-0.47026,0.0,0.0,0.0,,,,,
JVASP-101997,H10C5O2,-0.33077,5.069,na,0.1144,,,,,
JVASP-105364,TiMo2,-0.08335,0.0,na,0.0476,,,,,
JVASP-58153,BaCaTi4O8,-2.98247,0.0,na,0.2248,,,,,
JVASP-104591,LiMg2In,-0.19651,0.0,0.0,0.0,,,,,
JVASP-104970,BaSrN,-0.65574,0.0,na,0.0,,,,,
JVASP-14074,LiMnSe2,-0.57608,0.0,na,0.2086,,,,,
JVASP-102628,TbP2Pd2,-0.9164,0.0,0.0,0.0275,,,,,
JVASP-103818,H4C10S3O,0.07222,0.999,na,0.272,,,,,
JVASP-49856,K2Be2O3,-2.30046,3.686,6.437,0.0,,,,,
JVASP-14908,ZrSi2Ni2,-0.76256,0.0,na,0.0,,,,,
JVASP-107071,CoNi2S4,-0.41349,0.0,na,0.1002,,,,,
JVASP-107686,Pm2MgRu,-0.13553,0.0,0.0,0.0,,,,,
JVASP-107348,Er2Si3,-0.58052,0.0,0.0,0.0604,,,,,
JVASP-101885,SnH4C3O6,-0.929,3.44,5.109,0.1654,,,,,
JVASP-106796,InPt,-0.25793,0.0,0.0,0.2073,,,,,
JVASP-51235,BaNbTc2,0.92452,0.0,na,1.0892,,,,,
JVASP-28967,Te2MoW3Se2S4,-0.54751,0.202,na,0.2204,,,,,
JVASP-104754,Ce3GeS2,-1.75716,0.0,na,0.0,,,,,
JVASP-106746,Sm2O3,-3.45121,1.568,3.484,0.2205,,,,,
JVASP-105530,CeNdS2,-2.20636,0.0,na,0.0,,,,,
JVASP-21240,SrHfO3,-3.66645,4.062,na,0.0049,,,,,
JVASP-103883,TiH18C10O4,-0.40268,1.442,na,0.1875,,,,,
JVASP-104010,SnH12C6F2,-0.36836,4.363,na,0.1259,,,,,
JVASP-107186,LiMg2Au,-0.54397,0.0,0.0,0.0,,,,,
JVASP-2493,ZnCu2GeS4,-0.51187,0.325,na,0.0,,,,,
JVASP-107637,AgBiS2,-0.28353,0.261,0.519,0.0296,,,,,
JVASP-107239,ZnCo,0.03672,0.0,0.0,0.0889,,,,,
JVASP-2589,BaSe2,-1.46416,0.684,na,0.0174,,,,,
JVASP-104810,K2LaCuCl6,-1.85655,2.155,na,0.1041,,,,,
JVASP-101923,ZnH16C10O4,-0.39198,4.565,na,0.0857,,,,,
JVASP-106691,ZnCu3,-0.02764,0.0,na,0.0417,,,,,
JVASP-15586,CaMn2As2,-0.46778,0.0,0.0,0.0895,,,,,
JVASP-102530,MgAu3,-0.43152,0.0,0.0,0.0,,,,,
JVASP-102842,Li3MnO4,-2.0351,0.0,na,0.0087,,,,,
JVASP-105093,Cu2GeS4,-0.28142,0.0,0.0,0.0655,,,,,
JVASP-2256,ZnSiAs2,-0.18166,0.881,1.852,0.0,,,,,
JVASP-19081,KBO2,-2.4742,4.461,na,0.0,,,,,
JVASP-106966,MgSnRu2,-0.11259,0.0,0.0,0.0129,,,,,
JVASP-107139,Rb2NaTlBr6,-1.28787,0.723,na,0.0,,,,,
JVASP-13337,TiCo2O4,-1.83142,0.0,na,0.1222,,,,,
JVASP-106409,K3InCl6,-1.67144,3.577,na,0.0,,,,,
JVASP-18569,PrAl3Ni2,-0.6251,0.0,na,0.0054,,,,,
JVASP-106856,LiTiO2,-2.78988,0.0,na,0.0853,,,,,
JVASP-107461,LiZnCd2,-0.19312,0.0,0.0,0.0,,,,,
JVASP-104755,BaSrO2,-2.88269,2.764,na,0.0173,,,,,
JVASP-102787,Ce2CdSb4,-0.71992,0.0,na,0.0,,,,,
JVASP-12127,VOF3,-2.72616,3.138,3.465,0.0143,,,,,
JVASP-2373,Ga2HgSe4,-0.44452,0.872,2.075,0.0,,,,,
JVASP-42352,HfCrO4,-2.87844,0.0,na,0.0821,,,,,
JVASP-102730,LaCePd6,-0.87315,0.0,na,0.0,,,,,
JVASP-48307,Li2FeP4O12,-2.16168,0.612,na,0.0,,,,,
JVASP-15472,SmSi2Pt2,-0.97915,0.0,na,0.075,,,,,
JVASP-18719,ThHg3,-0.08632,0.0,na,0.0,,,,,
JVASP-105134,Cd3Ir,0.06411,0.0,0.0,0.0716,,,,,
JVASP-106921,Rb2HgAsI6,-0.71357,0.0,na,0.0248,,,,,
JVASP-44445,LiNbCrO4,-2.29783,0.0,na,0.15,,,,,
JVASP-15419,Zr2SnC,-0.84477,0.0,na,0.0,,,,,
JVASP-106624,Yb2MgTl,-0.33612,0.0,0.0,0.0,,,,,
JVASP-2817,K4IrO4,-1.4136,0.308,na,0.0,,,,,
JVASP-102582,Y3Si,-0.2832,0.0,na,0.2145,,,,,
JVASP-104696,Sm2Si3Pd,-0.8323,0.0,0.0,0.0,,,,,
JVASP-104923,TaNbAl6,-0.38095,0.0,0.0,0.0,,,,,
JVASP-52224,LiCu5F12,-1.77869,0.0,na,0.0035,,,,,
JVASP-102629,ThSiIr,-1.06083,0.0,0.0,0.0,,,,,
JVASP-104554,AlGaRu2,-0.44977,0.0,0.0,0.0026,,,,,
JVASP-102674,TaNbV,0.04344,0.0,na,0.0986,,,,,
JVASP-107511,TlPdPb,-0.16493,0.0,0.0,0.0,,,,,
JVASP-107072,CeGa3Ni,-0.52725,0.0,na,0.0052,,,,,
JVASP-105292,K2SnF6,-2.84205,5.325,8.287,0.0,,,,,
JVASP-106797,Ir4W,-0.08043,0.0,na,0.2018,,,,,
JVASP-107017,Zr2Se3S3,-1.2115,0.55,1.001,0.0189,,,,,
JVASP-106518,ErCuO3,-2.0154,0.0,na,0.2824,,,,,
JVASP-105447,Mn3B4Mo3,-0.3855,0.0,na,0.0243,,,,,
JVASP-107687,Pm2RuPt,-0.67681,0.0,na,0.0,,,,,
JVASP-107573,Cd2GaCuTe4,-0.32718,0.167,0.89,0.0088,,,,,
JVASP-105231,PaInPd2,-0.58833,0.0,na,0.0,,,,,
JVASP-13066,IO2F,-0.74086,2.765,4.455,0.0,,,,,
JVASP-42486,LiNbTe3O12,-1.39571,1.56,na,0.0305,,,,,
JVASP-107400,Na2PdAuF6,-1.67893,0.0,na,0.2319,,,,,
JVASP-104818,Rb2NdAgI6,-1.2312,2.626,na,0.0,,,,,
JVASP-106482,Al2FeRh,-0.71314,0.0,0.0,0.0025,,,,,
JVASP-105531,CeThCN,-1.0618,0.0,na,0.0064,,,,,
JVASP-18603,ErInAu2,-0.73864,0.0,na,0.0,,,,,
JVASP-106564,MgPb2,-0.02431,0.0,na,0.036,,,,,
JVASP-107140,Rb3BiBr6,-1.38027,3.385,na,0.0465,,,,,
JVASP-106747,Sm2P3Pt4,-1.09146,0.0,na,0.008,,,,,
JVASP-106969,NpHgO3,-2.20407,0.0,na,0.0002,,,,,
JVASP-106411,K3AsBr6,-1.23397,2.907,na,0.0607,,,,,
JVASP-103948,ZrH10C7O4,-0.54204,3.01,na,0.3073,,,,,
JVASP-13339,Nd2CdSe4,-1.50261,1.023,1.938,0.0142,,,,,
JVASP-48139,LiNiCO4,-1.45286,0.372,na,0.0234,,,,,
JVASP-14736,SmGa2,-0.68518,0.0,0.0,0.0,,,,,
JVASP-106857,Rb3BiF6,-2.66373,4.558,na,0.0942,,,,,
JVASP-16033,BaP2Pd2,-0.80841,0.0,na,0.0,,,,,
JVASP-104861,NaHg3,-0.0484,0.0,0.0,0.0404,,,,,
JVASP-28456,MoW2Se6,-0.56018,1.14,1.34,0.0433,,,,,
JVASP-3999,Na4HgP2,-0.37662,0.942,1.868,0.0038,,,,,
JVASP-107187,LiPrO3,-2.18096,0.0,na,0.2401,,,,,
JVASP-15724,SrNbO3,-3.01111,0.0,na,0.011,,,,,
JVASP-15522,DyCo2B2,-0.59803,0.0,na,0.0,,,,,
JVASP-102788,Ce3SiS2,-1.69149,0.0,na,0.0,,,,,
JVASP-107240,Yb3Mg,-0.02833,0.0,na,0.0206,,,,,
JVASP-106922,Rb2ScAuCl6,-1.73141,1.947,na,0.0447,,,,,
JVASP-44061,Li2FeBPO7,-2.10571,0.0,na,0.1425,,,,,
JVASP-104924,SrCa,-0.0088,0.0,na,0.0086,,,,,
JVASP-19082,BaTi2O5,-3.32517,1.881,na,0.0052,,,,,
JVASP-102531,MgNb3,0.22899,0.0,na,0.229,,,,,
JVASP-14909,TlCdS2,-0.36892,0.0,na,0.122,,,,,
JVASP-15771,TiAlNi2,-0.63998,0.0,0.0,0.0,,,,,
JVASP-1169,ThO2,-4.1762,4.823,5.013,0.0,,,,,
JVASP-104161,H3C3S2N,0.13551,0.58,1.627,0.2695,,,,,
JVASP-104646,ZnSiNi2,-0.31002,0.0,0.0,0.0673,,,,,
JVASP-16915,FeS2,-0.27792,0.0,na,0.3574,,,,,
JVASP-1663,TbRbS2,-2.03627,2.309,3.534,0.0,,,,,
JVASP-15375,SrAs2Ru2,-0.65373,0.0,0.0,0.0,,,,,
JVASP-52907,MgH6N2Cl2,-0.84572,4.997,na,0.0,,,,,
JVASP-101962,CdH14C9O4,-0.3404,2.315,na,0.1441,,,,,
JVASP-107512,TmUTe4,-0.96762,0.0,na,0.0,,,,,
JVASP-107688,Pm3Ti,0.22037,0.0,na,0.2204,,,,,
JVASP-104971,BeZn3O4,-1.93387,1.665,3.223,0.0179,,,,,
JVASP-103702,LiSi,0.05009,0.0,0.0,0.2457,,,,,
JVASP-15055,Ga2Au,-0.21871,0.0,0.0,0.0,,,,,
JVASP-105295,Rb3NdF6,-3.32057,4.508,8.712,0.1673,,,,,
JVASP-107141,K2RbMoBr6,-1.25512,1.377,na,0.1135,,,,,
JVASP-106798,InSnTe2,-0.30686,0.0,0.0,0.0126,,,,,
JVASP-44474,Li2Ni2BiO6,-1.2706,0.0,na,0.1767,,,,,