jid,formula,formation_energy_per_atom,optb88vdw_bandgap,mbj_bandgap,ehull,spacegroup_number,natoms,volume,bulk_modulus_kv,shear_modulus_gv
JVASP-99638,Ni3Se,0.12405,0.0,0.0,0.2844,,,,,
JVASP-99550,U2AsSe,-0.74076,0.0,na,0.1867,,,,,
JVASP-15018,ThFe5,-0.07341,0.0,na,0.0256,,,,,
JVASP-42462,Mn2O3F,-1.8449,0.0,na,0.0,,,,,
JVASP-100029,BiSbPd2,-0.33657,0.0,na,0.0071,,,,,
JVASP-103119,CeCdIn,-0.31987,0.0,na,0.0152,,,,,
JVASP-100487,Eu2TlIn,-0.45214,0.0,na,0.0,,,,,
JVASP-102102,AlWO4,-2.7545,0.0,0.824,0.0408,,,,,
JVASP-102212,DyCdIn,-0.39747,0.0,na,0.0069,,,,,
JVASP-102161,ZrTaCo4,-0.2726,0.0,na,0.0478,,,,,
JVASP-96912,KSb2F7,-2.61182,4.189,na,0.0,,,,,
JVASP-99682,Na2EuCuCl6,-1.61221,1.486,na,0.2099,,,,,
JVASP-100832,Hg2TeSe,0.10683,0.0,na,0.1228,,,,,
JVASP-100187,KYO3,-2.10613,0.0,na,0.4002,,,,,
JVASP-101698,PrAlZn,-0.47684,0.0,0.0,0.0,,,,,
JVASP-101461,HoGaAu,-0.81023,0.0,0.0,0.0,,,,,
JVASP-101160,LiMg,-0.08681,0.0,0.0,0.0276,,,,,
JVASP-15120,Cr3GaN,-0.29609,0.0,na,0.0373,,,,,
JVASP-101480,Li3GaF6,-2.83593,5.931,9.746,0.1642,,,,,
JVASP-15754,YbSb2,-0.67728,0.0,na,0.0,,,,,
JVASP-103539,W2C,-0.3842,0.0,0.0,0.004,,,,,
JVASP-99407,Ga3Co4Ge,-0.19295,0.0,na,0.0422,,,,,
JVASP-99341,CeAsS,-1.67383,0.0,na,0.0242,,,,,
JVASP-100149,BaErO3,-3.0126,0.0,na,0.1208,,,,,
JVASP-100671,RbAuCl3,-1.0299,0.0,na,0.0268,,,,,
JVASP-99790,HoErMg2,-0.05596,0.0,na,0.0046,,,,,
JVASP-2433,Ca4P2O,-1.87803,1.269,1.956,0.0,,,,,
JVASP-102965,Nd3Lu,0.00866,0.0,na,0.0087,,,,,
JVASP-1612,NaLuS2,-2.01603,2.432,3.417,0.0,,,,,
JVASP-100334,TeSe,-0.01745,0.413,1.059,0.0079,,,,,
JVASP-100786,Yb2Fe3Cu,-0.08687,0.0,na,0.0695,,,,,
JVASP-100079,K2LiEuCl6,-2.16677,4.96,na,0.0238,,,,,
JVASP-47636,Na3CuO3,-1.31472,1.154,na,0.0,,,,,
JVASP-15570,TiAlCo2,-0.6362,0.0,0.0,0.0,,,,,
JVASP-101218,Ce2SbTe,-1.30193,0.0,na,0.0,,,,,
JVASP-100241,Ti2RuRh,-0.73935,0.0,na,0.0184,,,,,
JVASP-18796,V4Zn5,-0.04814,0.0,na,0.0,,,,,
JVASP-107854,Rb2AlCuF6,-2.97288,1.355,na,0.026,,,,,
JVASP-99923,TePb2S,-0.50615,0.76,na,0.0366,,,,,
JVASP-97032,LaFePO,-2.10085,0.0,na,0.0231,,,,,
JVASP-102875,K2TlCuBr6,-0.99029,0.0,na,0.0515,,,,,
JVASP-99595,K2RbBiI6,-0.97212,2.778,3.324,0.1685,,,,,
JVASP-3960,Rb2PdCl6,-1.27055,1.091,1.741,0.0,,,,,
JVASP-103306,Sm3Cd,-0.12053,0.0,na,0.0529,,,,,
JVASP-4083,ClF,-0.37725,2.092,3.799,0.0438,,,,,
JVASP-1201,CuCl,-0.43344,0.729,1.587,0.0122,,,,,
JVASP-101602,Pm3Ho,0.00457,0.0,na,0.0046,,,,,
JVASP-99836,PmYIr2,-0.82309,0.0,na,0.0,,,,,
JVASP-100652,LaFeGe,-0.40135,0.0,na,0.2202,,,,,
JVASP-103401,V6GeOs,-0.32134,0.0,na,0.0169,,,,,
JVASP-21209,W,0.0,0.0,na,0.0,,,,,
JVASP-52989,Sr3Mn4O12,-2.19655,0.001,na,0.0813,,,,,
JVASP-51190,ReRuCl2,1.27718,0.0,na,1.7599,,,,,
JVASP-100740,NaAg2Sn,-0.11822,0.0,0.0,0.0,,,,,
JVASP-103218,NaCaH6Ir,-0.57187,3.537,3.81,0.0,,,,,
JVASP-99977,La2GaCoO6,-2.69433,0.614,na,0.0269,,,,,
JVASP-99881,DyMnGa,-0.18403,0.0,na,0.2411,,,,,
JVASP-107855,Na2LiTlCl6,-1.29118,1.548,na,0.1461,,,,,
JVASP-101700,NdFeGe,-0.40426,0.0,na,0.1724,,,,,
JVASP-100287,SmNiBi,-0.70869,0.248,0.287,0.0,,,,,
JVASP-100833,HfZr2UC4,-0.80616,0.0,na,0.008,,,,,
JVASP-103047,Ta3N,-0.51906,0.0,na,0.2298,,,,,
JVASP-101049,Sr2PrNbO6,-3.08749,2.94,3.767,0.1256,,,,,
JVASP-102103,AcHgTe2,-0.82897,0.0,na,0.0047,,,,,
JVASP-101648,NiSn2Au,-0.23259,0.0,0.0,0.0,,,,,
JVASP-99791,HoTmRu2,-0.44704,0.0,na,0.0,,,,,
JVASP-99408,CeTh,0.01446,0.0,na,0.108,,,,,
JVASP-102163,ZrNbN2,-1.50756,0.0,na,0.0785,,,,,
JVASP-15616,HoMn2Ge2,-0.44319,0.0,na,0.0,,,,,
JVASP-99508,InSn3,0.05956,0.0,0.0,0.0609,,,,,
JVASP-100030,Ca2GaAg,-0.42965,0.0,na,0.0425,,,,,
JVASP-102335,HoCo4Cu,-0.15412,0.0,na,0.0321,,,,,
JVASP-100672,Na2AgAuBr6,-0.64569,0.0,na,0.1498,,,,,
JVASP-101481,K3GaF6,-2.96382,5.998,9.61,0.0,,,,,
JVASP-100427,BiPbIO2,-1.21967,1.845,2.666,0.0,,,,,
JVASP-2673,Al2HgTe4,-0.36632,1.116,1.738,0.0,,,,,
JVASP-11955,NbNi3,-0.31075,0.0,na,0.0,,,,,
JVASP-100547,SiPN3,-0.71187,4.54,5.697,0.0082,,,,,
JVASP-103590,Cd2RhAu,-0.12161,0.0,0.0,0.0118,,,,,
JVASP-103120,Be4FeGe,-0.04733,0.0,na,0.115,,,,,
JVASP-100374,Mn2GaRh,-0.21484,0.0,na,0.0954,,,,,
JVASP-103540,MnF3,-2.52254,0.05,na,0.0107,,,,,
JVASP-52838,LiH3Se2O6,-1.09827,4.279,na,0.0,,,,,
JVASP-102966,Pa3Hg,0.18734,0.0,na,0.2555,,,,,
JVASP-103308,SrEu3,0.145,0.0,na,0.1453,,,,,
JVASP-99745,CoCu3HgSe4,-0.04054,0.0,na,0.1394,,,,,
JVASP-13963,ScOF,-3.92817,4.586,5.446,0.0636,,,,,
JVASP-16232,Nb2CS,-0.83944,0.0,na,0.0051,,,,,
JVASP-96913,BaP3Pt2,-0.89643,0.207,na,0.0183,,,,,
JVASP-15207,ThCr2Ge2,-0.25583,0.0,0.0,0.1433,,,,,
JVASP-103651,SiIr2,-0.25039,0.0,0.0,0.1628,,,,,
JVASP-15458,MnSbRh,-0.17,0.0,0.0,0.1158,,,,,
JVASP-100243,YbPtO3,-1.51064,0.0,na,0.3161,,,,,
JVASP-18669,Sc2Co,-0.31035,0.0,na,0.0202,,,,,
JVASP-101104,Tb2InAg,-0.42964,0.0,0.0,0.0,,,,,
JVASP-14981,HfAl3,-0.38948,0.0,0.0,0.0096,,,,,
JVASP-96968,C4SO2,-0.061,1.28,na,0.5076,,,,,
JVASP-20103,LaSe,-2.06569,0.0,na,0.0497,,,,,
JVASP-101409,Na3Zn,0.02047,0.0,na,0.0458,,,,,
JVASP-100741,MoPbO3,-1.74672,0.0,na,0.1117,,,,,
JVASP-99551,Th2Si3Ru,-0.73007,0.002,0.0,0.0,,,,,
JVASP-100150,Yb3Ba,0.04251,0.0,0.0,0.0425,,,,,
JVASP-100489,Ho2ZnPt,-0.87307,0.0,0.0,0.0179,,,,,
JVASP-100872,Ho2Mo2C3,-0.42557,0.0,0.0,0.0285,,,,,
JVASP-107856,Na2TlCuF6,-2.06988,0.0,na,0.1722,,,,,
JVASP-102283,Li3Ni,-0.00774,0.0,0.0,0.0071,,,,,
JVASP-99683,Na2IrAuF6,-1.59321,0.374,na,0.3118,,,,,
JVASP-101463,GaCuGeSe4,-0.38835,0.702,na,0.0,,,,,
JVASP-101220,Ce2UO6,-3.74711,0.0,na,0.0,,,,,
JVASP-13865,PrB3,-0.0214,0.0,na,0.5103,,,,,
JVASP-42158,LiMnSiO4,-2.37447,0.0,0.0,0.0535,,,,,
JVASP-100188,Li2CeGa,-0.15406,0.0,0.014,0.1172,,,,,
JVASP-99978,KRb2WO3F3,-2.68509,3.029,na,0.0,,,,,
JVASP-101603,Pm3Tm,0.00545,0.0,na,0.0055,,,,,
JVASP-4495,Nb2CS2,-0.93901,0.0,0.0,0.0104,,,,,
JVASP-101161,LiHoS2,-1.95884,0.314,1.106,0.0574,,,,,
JVASP-103221,Ac3Zn,0.03009,0.0,na,0.1898,,,,,
JVASP-100787,VW2C3,-0.04115,0.0,na,0.3357,,,,,
JVASP-101701,Nd2FeSb4,-0.66103,0.0,na,0.061,,,,,
JVASP-102213,Dy2Ga3Ni,-0.64897,0.0,0.0,0.0,,,,,
JVASP-1534,CrAuS2,-0.55603,0.442,na,0.0002,,,,,
JVASP-99924,ThUMn4Si4,-0.4194,0.0,na,0.0122,,,,,
JVASP-18797,YZn5,-0.29832,0.0,na,0.0164,,,,,
JVASP-18472,CeSi2Re4,-0.41306,0.0,na,0.0,,,,,
JVASP-99639,Pm2AlGa,-0.48188,0.0,0.0,0.0,,,,,
JVASP-100080,Li3AlF6,-3.24541,6.85,na,0.1742,,,,,
JVASP-99409,Ba2CaN2,-0.58421,0.0,na,0.1427,,,,,
JVASP-100654,La2FeSi3,-0.51578,0.0,na,0.189,,,,,
JVASP-1951,NaBr,-1.68273,4.404,6.848,0.0225,,,,,
JVASP-100032,Bi2Te,-0.05098,0.0,na,0.0838,,,,,
JVASP-1615,KSmTe2,-1.48267,1.256,1.882,0.0,,,,,
JVASP-101000,MgGe,-0.15065,0.0,0.0,0.1093,,,,,
JVASP-100673,K2LiSbI6,-0.9459,1.772,2.046,0.0924,,,,,
JVASP-43114,Li2FeO2,-1.62465,0.0,0.0,0.2005,,,,,
JVASP-99509,Hf5ScSi4,-0.71766,0.0,na,0.0241,,,,,
JVASP-100609,MgGe3,0.11926,0.0,na,0.2492,,,,,
JVASP-102876,Rb2AlHgF6,-2.86639,0.0,4.329,0.0743,,,,,
JVASP-97033,LiFeAs,-0.46988,0.0,na,0.0001,,,,,
JVASP-101649,ScBiPd,-0.8352,0.183,0.181,0.0,,,,,
JVASP-101482,K3PdF6,-2.35337,0.0,0.38,0.0614,,,,,
JVASP-102164,YNiGe,-0.75656,0.0,na,0.1039,,,,,
JVASP-99837,Pr2Mg,-0.05861,0.0,na,0.0203,,,,,
JVASP-100290,LiCa2Ge,-0.46046,0.0,0.472,0.0775,,,,,
JVASP-101106,TaVC2,-0.54205,0.0,na,0.0513,,,,,
JVASP-100335,TcNi,0.06753,0.0,0.0,0.1412,,,,,
JVASP-101410,PrEuAg2,-0.31392,0.0,na,0.0,,,,,
JVASP-101050,Tb2MgCu2,-0.29555,0.0,na,0.0,,,,,
JVASP-100189,Yb3K,0.16405,0.0,na,0.1662,,,,,
JVASP-100834,HfNb4CN4,-1.07665,0.0,na,0.1591,,,,,
JVASP-18593,ScAg4,-0.22198,0.0,0.0,0.0,,,,,
JVASP-2754,SrCd2P2,-0.65435,0.725,1.627,0.0,,,,,
JVASP-100743,Nb2TcOs,-0.25664,0.0,na,0.0,,,,,
JVASP-100244,Tl3Sb,-0.00536,0.0,na,0.0131,,,,,
JVASP-103403,TlBiF4,-2.33117,3.543,na,0.0312,,,,,
JVASP-99684,Na2LuAgCl6,-1.63709,2.789,na,0.1775,,,,,
JVASP-99456,FeAs2O7,-1.12886,0.033,0.0,0.0703,,,,,
JVASP-99596,AlRhO3,-2.06147,1.77,1.924,0.0392,,,,,
JVASP-107857,Na2CuBiF6,-2.1739,0.498,na,0.2885,,,,,
JVASP-100151,Ca2HgGe,-0.63402,0.006,na,0.0,,,,,
JVASP-48356,Cr4CuO12,-1.6746,0.0,na,0.0164,,,,,
JVASP-11956,AlNi,-0.66282,0.0,na,0.0004,,,,,
JVASP-99793,KNpO3,-3.00602,0.0,0.0,0.0,,,,,
JVASP-100943,MgGaCu3Se4,-0.3347,0.0,0.0,0.2143,,,,,
JVASP-103311,Tb2RuRh,-0.64301,0.0,na,0.0,,,,,
JVASP-102336,InGa3N4,-0.37988,0.592,na,0.051,,,,,
JVASP-102104,Ac2Mg,-0.04078,0.0,na,0.0235,,,,,
JVASP-100428,BaAlSn,-0.54367,0.0,0.263,0.0229,,,,,
JVASP-100375,LiHoSe2,-1.69656,0.172,0.724,0.0851,,,,,
JVASP-102971,Pr2Mg,-0.05418,0.0,na,0.0248,,,,,
JVASP-101464,Fe3Ge2,-0.05284,0.0,na,0.0396,,,,,
JVASP-99746,CoSI,-0.14435,0.0,0.0,0.2157,,,,,
JVASP-50723,Li5CuF6,-2.74534,1.92,na,0.118,,,,,
JVASP-101752,Ag2BiSbTe4,-0.08041,0.0,0.0,0.0479,,,,,
JVASP-100788,VCrGeC,-0.28603,0.0,na,0.0264,,,,,
JVASP-100081,K3TaCl6,-1.6087,0.0,na,0.1643,,,,,
JVASP-18880,TaMn2O3,-1.1215,0.0,na,0.8993,,,,,
JVASP-103541,Sr2Fe2Se2OF2,-2.13089,0.0,na,0.0909,,,,,
JVASP-14982,NpO2,-3.51031,0.0,na,0.0,,,,,
JVASP-100674,K2NaSbCl6,-1.54606,3.165,na,0.0334,,,,,
JVASP-101221,Ce2ThO6,-3.87607,1.825,na,0.0,,,,,
JVASP-15755,OsC,0.89994,0.0,0.0,0.9015,,,,,
JVASP-96916,CaHg11,0.1684,0.0,na,0.2533,,,,,
JVASP-100548,PdPt,-0.03899,0.0,na,0.0,,,,,
JVASP-15237,HfGaCo2,-0.48951,0.0,0.0,0.0,,,,,
JVASP-101605,PmY3,0.00659,0.0,na,0.0073,,,,,
JVASP-15501,TlCu2Se2,-0.25468,0.0,na,0.0,,,,,
JVASP-99979,InSb,0.04793,0.0,na,0.1416,,,,,
JVASP-102878,K2AgSbBr6,-1.02738,0.814,na,0.0413,,,,,
JVASP-100493,LiPr2Al,-0.20225,0.0,0.0,0.0155,,,,,
JVASP-14574,ErSe,-1.75609,0.0,1.378,0.0,,,,,
JVASP-99882,ErP2Pd2,-0.8723,0.0,na,0.0736,,,,,
JVASP-50479,SmDyO3,-3.70103,4.728,na,0.0413,,,,,
JVASP-107858,K2NaTaCl6,-1.63877,0.0,na,0.1062,,,,,
JVASP-100610,YbNa3,0.09943,0.0,na,0.1086,,,,,
JVASP-99510,Er2Fe3Cu,-0.14566,0.0,na,0.0727,,,,,
JVASP-15323,MnSbPd,-0.01848,0.0,0.0,0.2435,,,,,
JVASP-100033,BaSrMo2O6,-2.64512,0.0,na,0.0063,,,,,
JVASP-101702,NaU2Cl6,-1.69203,0.0,na,0.0845,,,,,
JVASP-102284,LiDy2Tl,-0.20494,0.0,0.0,0.0212,,,,,
JVASP-100873,YbBiO3,-2.16228,0.0,0.0,0.0,,,,,
JVASP-99640,Pr3In,-0.27563,0.0,na,0.0239,,,,,
JVASP-99925,TcPt,-0.04295,0.0,na,0.1404,,,,,
JVASP-99838,Pr2MgAl,-0.26453,0.0,na,0.0023,,,,,
JVASP-103121,CaTi2S4,-1.73127,0.0,0.0,0.0601,,,,,
JVASP-2337,ZnSnP2,-0.21399,0.586,1.689,0.0,,,,,
JVASP-1561,NaScO2,-3.10092,4.037,5.212,0.0141,,,,,
JVASP-97034,MgFeGe,-0.20916,0.0,na,0.0074,,,,,
JVASP-100245,TlAu3,0.11201,0.0,na,0.1251,,,,,
JVASP-44728,V2Cr3Sb3O16,-1.8318,0.0,na,0.1706,,,,,
JVASP-15682,LuNi2B2C,-0.55944,0.0,0.0,0.0,,,,,
JVASP-103593,CdHg3,0.18855,0.0,0.0,0.191,,,,,
JVASP-99343,Na3YH12C3O15,-1.52074,5.074,na,0.0,,,,,
JVASP-44376,Li2Fe3SbO8,-1.66558,0.025,na,0.0282,,,,,
JVASP-3963,K2PdF4,-2.32207,1.965,na,0.0,,,,,
JVASP-15460,NdScGe,-0.74017,0.0,0.0,0.0,,,,,
JVASP-99457,KNa2RhF6,-2.29217,2.242,2.746,0.2007,,,,,
JVASP-100944,MgCrCu3Se4,-0.3798,0.0,na,0.143,,,,,
JVASP-101484,K3LaCl6,-2.15087,4.399,na,0.129,,,,,
JVASP-101109,TaTiN2,-1.49611,0.0,na,0.1168,,,,,
JVASP-100789,UNb,0.18731,0.0,na,0.1873,,,,,
JVASP-101051,Tl3CrF6,-2.27229,1.732,na,0.0,,,,,
JVASP-99794,KCa3,0.15082,0.0,na,0.1656,,,,,
JVASP-103404,Tl2BiSbTe4,-0.26971,0.29,0.54,0.0014,,,,,
JVASP-100190,LaPrIr2,-0.66732,0.0,na,0.0497,,,,,
JVASP-15104,Mn3ZnC,0.00945,0.0,na,0.0869,,,,,
JVASP-100744,Nd3Y,0.02291,0.0,na,0.0283,,,,,
JVASP-101651,ErNiBi,-0.71069,0.153,0.141,0.0,,,,,
JVASP-102337,InAgGeSe4,-0.35548,0.708,1.5,0.0,,,,,
JVASP-100429,Ba2TlSbO6,-2.05685,0.0,na,0.0,,,,,
JVASP-101465,CeThS2,-2.07503,0.0,na,0.0,,,,,
JVASP-107861,Rb3TlCl6,-1.49985,2.427,na,0.0206,,,,,
JVASP-102973,Ta2OsRu,-0.27484,0.0,na,0.0282,,,,,
JVASP-100082,K3LuCl6,-2.15326,4.75,na,0.0,,,,,
JVASP-99597,AcSm3,0.04525,0.0,na,0.0481,,,,,
JVASP-15019,NbO,-1.37045,0.0,0.0,0.7509,,,,,
JVASP-4089,RbBiO2,-1.50669,2.192,3.562,0.0,,,,,
JVASP-100655,HoMnIn,-0.04524,0.0,0.0,0.2718,,,,,
JVASP-101542,BeAsRu2,-0.17885,0.0,0.0,0.0866,,,,,
JVASP-53381,Cr4Cu3Se8,-0.40605,0.0,na,0.0376,,,,,
JVASP-2757,BaMg2P2,-1.06409,1.151,1.675,0.0,,,,,
JVASP-15361,NdSi2Pd2,-0.88532,0.0,0.0,0.0,,,,,
JVASP-100675,K2PrAgF6,-2.93737,2.23,4.817,0.1781,,,,,
JVASP-99410,Y4S3N2,-2.15518,1.499,2.083,0.0,,,,,
JVASP-102285,LuMg2Sc,-0.03878,0.0,na,0.0,,,,,
JVASP-1618,NaTmS2,-2.01865,2.382,3.203,0.0,,,,,
JVASP-14595,Si,0.40273,0.0,0.0,0.0,,,,,
JVASP-50375,TbSmO3,-3.6777,4.661,6.116,0.06,,,,,
JVASP-103548,Li2MnF6,-2.6877,2.37,na,0.1469,,,,,
JVASP-102165,W2N3,-0.78342,0.0,na,0.0,,,,,
JVASP-103049,Ta4N3,-1.05428,0.0,na,0.1282,,,,,
JVASP-99981,HoCo4Ni,-0.18019,0.0,na,0.0506,,,,,
JVASP-15158,ErFe2B2,-0.50302,0.0,0.0,0.0,,,,,
JVASP-22604,Cr2F5,-2.09558,0.0,0.0,0.5264,,,,,
JVASP-100376,LiSbTe2,-0.41246,0.0,na,0.0863,,,,,
JVASP-100035,BaCa3,0.03398,0.0,na,0.0483,,,,,
JVASP-99511,Cr2Ir2C,-0.19323,0.0,na,0.0039,,,,,
JVASP-100549,PrGa3Pt,-0.71956,0.0,na,0.0,,,,,
JVASP-103222,AcAlO3,-3.59055,4.319,5.307,0.0,,,,,
JVASP-14278,LiMnTe2,-0.29352,0.0,na,0.2291,,,,,
JVASP-15502,UAlRh,-0.587,0.0,na,0.1287,,,,,
JVASP-100292,SrPAu,-0.99206,0.0,0.0,0.0,,,,,
JVASP-101162,LiNdSe2,-1.69615,0.085,0.538,0.0296,,,,,
JVASP-102215,ErScB2O6,-3.29301,4.618,5.527,0.0064,,,,,
JVASP-100336,TcIr,-0.21503,0.0,0.0,0.0161,,,,,
JVASP-99685,NaLi2IrF6,-2.13222,1.99,na,0.2978,,,,,
JVASP-103312,SrEu3,0.14092,0.0,0.0,0.1412,,,,,
JVASP-100246,YbSmCd2,-0.42845,0.0,na,0.0,,,,,
JVASP-101411,Sr2PdPt,-0.79097,0.0,0.0,0.0475,,,,,
JVASP-100495,MgBi3,0.03239,0.0,na,0.1437,,,,,
JVASP-48300,Li2Ti2FeO6,-2.52021,0.984,na,0.1541,,,,,
JVASP-99884,Tm2MgNi2,-0.47152,0.0,na,0.0,,,,,
JVASP-107864,Rb2LiTaBr6,-1.37467,0.0,na,0.0191,,,,,
JVASP-100790,TiInPd2,-0.53814,0.0,na,0.0157,,,,,
JVASP-99598,BaInO3,-1.96681,0.0,na,0.0915,,,,,
JVASP-99458,Na3InBr6,-1.15496,1.924,na,0.2001,,,,,
JVASP-100611,Na3La,0.28997,0.0,na,0.2991,,,,,
JVASP-15998,Sr3SnO,-1.68821,0.0,na,0.0,,,,,
JVASP-48537,Li2VO2F2,-2.76826,0.0,0.0,0.1519,,,,,
JVASP-102106,Ca3Eu,0.12276,0.0,0.0,0.1354,,,,,
JVASP-15661,PrB2Ru3,-0.37395,0.0,na,0.0467,,,,,
JVASP-99747,Al2NiOs,-0.55819,0.0,na,0.0,,,,,
JVASP-101486,K2RbAuBr6,-1.01106,0.0,na,0.2058,,,,,
JVASP-100152,CaMg,-0.11616,0.0,0.0,0.0,,,,,
JVASP-101753,Cr2AgS4,-0.58753,0.0,na,0.0239,,,,,
JVASP-99839,Pr3Sc,0.05427,0.0,na,0.064,,,,,
JVASP-1438,NaCrSe2,-0.8366,0.808,na,0.0,,,,,
JVASP-99795,YbLaTl2,-0.48628,0.0,na,0.0117,,,,,
JVASP-99552,TbZnAgAs2,-0.62393,0.251,0.811,0.0683,,,,,
JVASP-100835,GaCuSe2,-0.25647,0.0,0.0,0.2184,,,,,
JVASP-102974,PrEuHg2,-0.38241,0.0,na,0.0,,,,,
JVASP-100677,K2InAgCl6,-1.37039,0.851,na,0.0,,,,,
JVASP-19876,Er2In,-0.35687,0.0,0.0,0.0,,,,,
JVASP-15282,TbCo2B2,-0.58948,0.0,0.0,0.0,,,,,
JVASP-100191,La2ZnHg,-0.37319,0.0,na,0.0317,,,,,
JVASP-100656,HoBiTe3,-0.81508,1.013,na,0.0228,,,,,
JVASP-102888,Rb2AlAuCl6,-1.46678,0.534,1.873,0.0729,,,,,
JVASP-100083,K3CeI6,-1.37171,0.0,na,0.1123,,,,,
JVASP-107866,Rb2AlTlCl6,-1.70252,3.648,na,0.0266,,,,,
JVASP-17898,ZnFeF6,-2.15281,0.0,0.0,0.0,,,,,
JVASP-100337,TbDyAl4,-0.53919,0.0,na,0.0039,,,,,
JVASP-20104,ThC,-0.41567,0.0,0.0,0.0,,,,,
JVASP-102166,V3NiO6,-2.19804,0.0,0.0,0.1058,,,,,
JVASP-101703,NaNO3,-0.99031,2.872,4.548,0.0089,,,,,
JVASP-103704,YbLaAl4,-0.48019,0.0,na,0.0,,,,,
JVASP-99513,AgSbS2,-0.22571,0.333,0.724,0.0301,,,,,
JVASP-18473,TbBr,-1.2532,0.0,na,0.0107,,,,,
JVASP-99926,Tb2O3,-3.54319,1.608,na,0.2605,,,,,
JVASP-101412,Sm2MgIn,-0.33272,0.0,na,0.0,,,,,
JVASP-100874,SrCaI4,-1.76452,3.424,4.198,0.0,,,,,
JVASP-22605,RbMnF3,-2.22058,0.0,na,0.5058,,,,,
JVASP-51152,SrZr2Nb,0.66581,0.0,0.0,0.6658,,,,,
JVASP-100745,Pm2NiPt,-0.74996,0.0,0.0,0.0,,,,,
JVASP-101110,TaB2Mo3C2,-0.42884,0.0,na,0.0,,,,,
JVASP-99983,InAg2SbSe4,-0.25498,0.0,na,0.0318,,,,,
JVASP-102339,In3GaN4,-0.08897,0.0,na,0.0616,,,,,
JVASP-103313,Tb3Eu,0.00514,0.0,na,0.0052,,,,,
JVASP-47637,LiCoPO4,-1.91253,0.447,na,0.0771,,,,,
JVASP-101001,MgNi,-0.23188,0.0,0.0,0.0287,,,,,
JVASP-97035,NaFeAs,-0.3214,0.0,na,0.0,,,,,
JVASP-103405,TlIn2GaTe4,-0.33604,0.232,na,0.0142,,,,,
JVASP-100791,Th2PNO,-2.50636,1.363,1.931,0.0,,,,,
JVASP-15503,YCo3B2,-0.51877,0.0,na,0.0,,,,,
JVASP-103552,LiAgF4,-1.82297,0.919,na,0.0077,,,,,
JVASP-3966,K3BrO,-1.50881,1.017,3.21,0.0,,,,,
JVASP-101653,Sr2LaNbO6,-3.11445,3.044,na,0.1435,,,,,
JVASP-101053,PrIn2Ir,-0.562,0.0,0.0,0.0,,,,,
JVASP-19846,GaNi3,-0.27342,0.0,0.0,0.015,,,,,
JVASP-100247,Tl3S,-0.16852,0.0,na,0.1266,,,,,
JVASP-1636,LiZnAs,-0.55318,0.541,na,0.0,,,,,
JVASP-15238,UGeSe,-0.8411,0.0,0.0,0.0,,,,,
JVASP-14596,As,0.12267,0.0,0.0,0.0,,,,,
JVASP-99796,YbLi2In,-0.29064,0.0,na,0.0018,,,,,
JVASP-99411,RbPrO2,-2.77698,3.554,4.826,0.0,,,,,
JVASP-101466,CeSi2RuRh,-0.91773,0.0,na,0.0,,,,,
JVASP-99641,Sr2LiCd,-0.19881,0.0,na,0.0191,,,,,
JVASP-107867,Rb3AuCl6,-1.26546,0.0,na,0.1543,,,,,
JVASP-102975,PrEuZn2,-0.36395,0.0,na,0.0,,,,,
JVASP-101487,K2LiAsF6,-2.75292,4.707,5.638,0.0,,,,,
JVASP-100836,DyZnCuAs2,-0.67488,0.079,na,0.0243,,,,,
JVASP-102286,Na3In,-0.10845,0.0,na,0.0,,,,,
JVASP-100036,BaCd3Ga,-0.35245,0.0,na,0.0,,,,,
JVASP-1954,AgCl,-0.47159,0.925,2.878,0.0,,,,,
JVASP-15046,Nb3Au,-0.09425,0.0,0.0,0.0142,,,,,
JVASP-99554,Nb2Tc,-0.11265,0.0,na,0.1069,,,,,
JVASP-5197,SbSI,-0.25249,1.16,1.235,0.1245,,,,,
JVASP-100498,Pd3W,-0.16678,0.0,na,0.0,,,,,
JVASP-103223,Ag3Au,-0.04813,0.0,na,0.0092,,,,,
JVASP-100193,KBa3,0.10402,0.0,na,0.1062,,,,,
JVASP-103050,Ta3Mo3N4,-0.85285,0.0,na,0.0538,,,,,
JVASP-101606,PmYRh2,-0.82931,0.0,na,0.0,,,,,
JVASP-99841,Rb2Mg,0.10749,0.0,na,0.1277,,,,,
JVASP-14719,RhPb,-0.04025,0.0,na,0.0,,,,,
JVASP-103126,Ba2TaMnO6,-2.90434,0.0,0.0,0.0,,,,,
JVASP-100553,MgCdC2O6,-1.81994,3.818,6.045,0.0,,,,,
JVASP-43121,Li2VCrO4,-2.29136,0.0,0.0,0.0892,,,,,
JVASP-100293,DySi2Ag2,-0.34671,0.0,0.0,0.0065,,,,,
JVASP-14653,SnRh,-0.39545,0.0,0.0,0.0,,,,,
JVASP-99459,K2InAsI6,-0.74106,0.0,0.0,0.1017,,,,,
JVASP-100679,K2YAuCl6,-1.70857,2.1,na,0.1094,,,,,
JVASP-305,TiO2,-0.41758,0.0,0.0,2.8456,,,,,
JVASP-100084,K3AuCl6,-1.21987,0.12,na,0.1317,,,,,
JVASP-102898,Rb2NdAuCl6,-1.71646,1.978,na,0.1477,,,,,
JVASP-17899,CaVF6,-3.40049,0.0,4.355,0.0,,,,,
JVASP-101413,Ta2ReW,-0.42376,0.0,na,0.0,,,,,
JVASP-99351,Yb4Mg4Fe3H22,-0.51294,1.391,na,0.0,,,,,
JVASP-103598,ErThRu2,-0.52414,0.0,0.0,0.0,,,,,
JVASP-101222,Cd3Ag,-0.03264,0.0,na,0.0,,,,,
JVASP-99686,K2RbAlF6,-3.30866,6.38,9.922,0.0734,,,,,
JVASP-100746,Pm3Th,0.05083,0.0,na,0.077,,,,,
JVASP-99985,In2CuSe3Br,-0.48172,0.503,na,0.0478,,,,,
JVASP-99927,SrCuGe,-0.48359,0.0,na,0.0,,,,,
JVASP-99748,AlFe3,-0.17894,0.0,na,0.013,,,,,
JVASP-99885,SrAl2Ga2,-0.42807,0.0,0.0,0.0,,,,,
JVASP-1540,Al2Os,-0.58309,0.368,0.412,0.0,,,,,
JVASP-100612,Nd2InHg,-0.43923,0.0,na,0.0181,,,,,
JVASP-16104,Cr2N,-0.49191,0.0,na,0.0,,,,,
JVASP-102340,HfWC2,-0.52126,0.0,na,0.15,,,,,
JVASP-50958,SmErO3,-3.74555,4.865,na,0.0352,,,,,
JVASP-100792,ThZr3,0.07772,0.0,na,0.0777,,,,,
JVASP-100945,AlCu3HgSe4,-0.18587,0.0,0.0,0.177,,,,,
JVASP-101111,SrPb3S4,-1.07939,0.995,na,0.0093,,,,,
JVASP-102168,TmBiTe3,-0.80437,1.023,na,0.0257,,,,,
JVASP-18847,TbSnAu,-0.84111,0.0,0.0,0.0,,,,,
JVASP-100153,Yb3Ca,0.0203,0.0,0.0,0.0245,,,,,
JVASP-101002,Mn3Sb,0.18039,0.0,na,0.1804,,,,,
JVASP-102107,CeSmZn2,-0.27628,0.0,na,0.0405,,,,,
JVASP-15999,YbAgS2,-1.16866,0.0,na,0.0905,,,,,
JVASP-100248,Tm2GaRu,-0.52895,0.0,na,0.0,,,,,
JVASP-107868,Rb3SbI6,-1.00905,2.366,2.738,0.0849,,,,,
JVASP-106195,Rb2CuMoCl6,-1.3018,0.988,na,0.0481,,,,,
JVASP-598,CrS2,-0.5715,0.0,0.0,0.0981,,,,,
JVASP-102218,CoSi4Ni,-0.34152,0.0,na,0.0,,,,,
JVASP-100433,Al3SiPd4,-0.77707,0.0,na,0.0101,,,,,
JVASP-99412,K2RbTlBr6,-1.18378,1.587,na,0.1504,,,,,
JVASP-100657,HfU3S3,-0.9274,0.0,na,0.3554,,,,,
JVASP-99797,LiCe2Os,-0.10372,0.0,na,0.0222,,,,,
JVASP-103652,DyCdAu,-0.7103,0.0,na,0.0,,,,,
JVASP-4095,K4BeAs2,-0.51161,1.0,na,0.0,,,,,
JVASP-102287,NdSm3,-0.00159,0.0,na,0.0109,,,,,
JVASP-100378,Li2Cu3Ge,-0.19296,0.0,na,0.0399,,,,,
JVASP-100037,BaGa2GeSe6,-0.85302,1.744,na,0.0,,,,,
JVASP-100876,Na2HgAsCl6,-0.89247,0.0,na,0.2408,,,,,
JVASP-2091,PbF4,-1.9023,1.849,3.02,0.0,,,,,
JVASP-101754,MgInS3,-0.79711,0.0,0.471,0.1769,,,,,
JVASP-101489,K2ScHgBr6,-1.40041,0.0,na,0.0198,,,,,
JVASP-101704,NaBiS2,-0.87505,1.667,2.339,0.0,,,,,
JVASP-20105,ScCu,-0.32794,0.0,0.0,0.0,,,,,
JVASP-100339,TbCu2Ni3,-0.32272,0.0,na,0.0026,,,,,
JVASP-101544,Ca2AgPd,-0.61035,0.0,0.0,0.0,,,,,
JVASP-99514,CeMgS3,-1.47892,0.392,na,0.325,,,,,
JVASP-100837,Fe3Si4Ir,-0.41442,0.0,0.0,0.0511,,,,,
JVASP-101057,PrNiBi,-0.69471,0.297,0.297,0.0,,,,,
JVASP-100681,Rb2SmCuCl6,-1.86648,2.547,na,0.0,,,,,