jid,formula,formation_energy_per_atom,optb88vdw_bandgap,mbj_bandgap,ehull,spacegroup_number,natoms,volume,bulk_modulus_kv,shear_modulus_gv
JVASP-60627,UTe3,-0.54021,0.0,0.0,0.0121,,,,,
JVASP-28451,NbCl2O,-1.85085,0.816,na,0.0,,,,,
JVASP-71523,BeHgSb2,0.53018,0.0,na,0.5302,,,,,
JVASP-71115,NaBeMo4,0.86142,0.0,na,0.9371,,,,,
JVASP-48919,LiCo4O8,-1.22386,0.0,na,0.0721,,,,,
JVASP-3690,KMgH3,-0.38946,3.471,5.5,0.0,,,,,
JVASP-71940,BeCo2Os,-0.00646,0.0,0.0,0.1544,,,,,
JVASP-69778,TiBe2Ru,-0.30769,0.0,0.0,0.1633,,,,,
JVASP-70893,Be2IrBr,0.38427,0.0,0.0,1.0164,,,,,
JVASP-14802,NiS,-0.34469,0.0,na,0.0934,,,,,
JVASP-14710,CoSe,-0.1505,0.0,0.0,0.131,,,,,
JVASP-14224,RbTe6,-0.2752,0.0,na,0.0172,,,,,
JVASP-69614,Be2CrRu,-0.02922,0.0,0.0,0.2406,,,,,
JVASP-70255,BeTcPd,0.016,0.0,0.0,0.3895,,,,,
JVASP-72286,ScBeCu2,0.04537,0.0,na,0.311,,,,,
JVASP-69855,Be2NbFe,-0.03578,0.0,na,0.2106,,,,,
JVASP-71659,BeCo2Hg,0.45666,0.0,0.0,0.6176,,,,,
JVASP-70545,Be2TlCr,0.58013,0.0,na,0.7372,,,,,
JVASP-70831,LaYBe2,0.1574,0.0,na,0.1723,,,,,
JVASP-71218,BeCdCl2,-0.22215,0.0,na,0.8997,,,,,
JVASP-63888,Ba4CrMo,1.4027,0.0,na,1.4027,,,,,
JVASP-71260,Na2HfBe,0.33328,0.0,na,0.4228,,,,,
JVASP-85709,BaBiO3,-1.46224,0.963,1.759,0.5519,,,,,
JVASP-94375,Sr2Mg,0.07391,0.0,na,0.1542,,,,,
JVASP-106042,LiBi3I2O4,-1.34085,2.0,2.002,0.0008,,,,,
JVASP-70862,Ti2BeGa,-0.07704,0.0,0.0,0.2821,,,,,
JVASP-93185,KSrMg6,0.05505,0.0,na,0.1164,,,,,
JVASP-70467,YBe2Se,0.01023,0.0,na,0.9441,,,,,
JVASP-71603,BeVFe2,-0.13368,0.0,0.0,0.1386,,,,,
JVASP-70410,MnBe2Pt,-0.24551,0.0,0.0,0.1877,,,,,
JVASP-93127,CeMg6Cd,0.02279,0.0,na,0.0998,,,,,
JVASP-74346,MnBe2Ru,-0.12423,0.0,na,0.1456,,,,,
JVASP-93320,CaMg5,-0.04127,0.0,na,0.0296,,,,,
JVASP-71338,LaMnBe2,0.21795,0.0,na,0.3943,,,,,
JVASP-105890,SmAgAs2,-0.78495,0.0,na,0.011,,,,,
JVASP-91475,KPO2F2,-2.58755,5.633,8.464,0.0,,,,,
JVASP-86362,EuPd2,-0.82253,0.0,na,0.0748,,,,,
JVASP-71411,MnBeSb2,0.24923,0.0,na,0.3374,,,,,
JVASP-105824,MnAl2Tc,-0.26269,0.0,0.0,0.0404,,,,,
JVASP-91412,Ag2F5,-1.17082,0.0,na,0.0149,,,,,
JVASP-93650,SmGe5,-0.24199,0.0,na,0.1019,,,,,
JVASP-94759,SrMg6Al,-0.00181,0.0,na,0.0982,,,,,
JVASP-71188,BeGeIr2,-0.1899,0.0,na,0.109,,,,,
JVASP-70012,Be2PtCl,0.0439,0.0,na,0.8692,,,,,
JVASP-92948,RbMg6C,0.28035,0.0,na,0.2845,,,,,
JVASP-70079,YBeIn,-0.25863,0.0,0.0,0.0988,,,,,
JVASP-94235,Mg6VFe,0.32417,0.0,na,0.3653,,,,,
JVASP-94138,NaMg6Co,0.18336,0.0,na,0.1964,,,,,
JVASP-53094,Cd3AsI3,-0.40556,0.854,1.969,0.0,,,,,
JVASP-105752,CuPb3,0.25802,0.0,na,0.258,,,,,
JVASP-92642,U2OsC2,-0.30449,0.0,na,0.0,,,,,
JVASP-70786,BeTc2Sb,0.08091,0.0,na,0.163,,,,,
JVASP-69523,NaMgBe2,0.35059,0.0,na,0.3619,,,,,
JVASP-69409,Be2SnTe,0.57999,0.0,na,0.7915,,,,,
JVASP-69918,YBe2Co,-0.01572,0.0,na,0.2315,,,,,
JVASP-71484,Be2FeBi,0.53824,0.0,na,0.74,,,,,
JVASP-93425,YbSbAu,-0.90967,0.0,na,0.0001,,,,,
JVASP-86025,MnVBiO5,-1.96885,0.678,na,0.0281,,,,,
JVASP-92266,Ca3BiP,-0.214,0.0,na,0.8527,,,,,
JVASP-92313,SrMg,-0.06043,0.0,na,0.0601,,,,,
JVASP-72291,ZrTi2Be,0.04268,0.0,na,0.1291,,,,,
JVASP-71010,BeSb2Br,0.17589,0.0,na,0.5767,,,,,
JVASP-63889,Ba2TiHg,0.40261,0.0,0.0,0.6603,,,,,
JVASP-71038,TaBe2Pt,-0.15046,0.0,na,0.3362,,,,,
JVASP-105622,Na2GaAuF6,-2.15474,0.169,na,0.2774,,,,,
JVASP-70752,BeMoRh2,-0.22047,0.0,0.0,0.1842,,,,,
JVASP-18744,MgPt3,-0.61834,0.0,0.0,0.0196,,,,,
JVASP-70705,KBe2Te,0.35358,0.0,na,0.8774,,,,,
JVASP-74259,NaBe2Sn,0.57591,0.0,na,0.6805,,,,,
JVASP-70833,Hf2BeCl,-0.1847,0.0,na,0.0,,,,,
JVASP-74210,SrCa2Be,0.36762,0.0,na,0.4139,,,,,
JVASP-70469,Be2MoSe,0.18048,0.0,na,0.7561,,,,,
JVASP-92897,Mg6MoC,0.66641,0.0,na,0.7088,,,,,
JVASP-96483,Ba2TiO4,-3.23742,4.265,na,0.0,,,,,
JVASP-69857,TaBeSi,0.29832,0.0,0.0,0.6574,,,,,
JVASP-71778,MnBeFe2,-0.01983,0.0,0.0,0.0963,,,,,
JVASP-71881,TiBeTc2,0.00204,0.0,na,0.3348,,,,,
JVASP-74348,Mg4BePt,0.26551,0.0,na,0.7036,,,,,
JVASP-69705,YBe2Ga,0.07094,0.0,na,0.4177,,,,,
JVASP-90927,Sr2AgSb,0.85596,0.522,na,1.6795,,,,,
JVASP-71525,HfBeOs,0.01714,0.0,0.0,0.582,,,,,
JVASP-105690,KRb2AsCl6,-1.5202,3.48,na,0.0153,,,,,
JVASP-43089,LiFe3Sn2S8,-0.54747,0.0,0.0,0.1573,,,,,
JVASP-70932,BeNbPt2,-0.46799,0.0,na,0.1749,,,,,
JVASP-71146,Be2HgBi,0.86923,0.0,na,0.8692,,,,,
JVASP-15395,ErMn2Ge2,-0.43698,0.0,na,0.0,,,,,
JVASP-93768,LaScSb,-0.89426,0.0,na,0.0152,,,,,
JVASP-92448,CeCo2P2,-0.98765,0.0,na,0.0,,,,,
JVASP-92383,UCr2Si2,-0.16357,0.0,na,0.1146,,,,,
JVASP-71986,BeFeBr2,0.52274,0.0,0.0,1.3253,,,,,
JVASP-94415,LaRu2,-0.15475,0.0,na,0.0,,,,,
JVASP-60631,ScHCl,-1.44828,0.0,na,0.0,,,,,
JVASP-69919,LiBe2Re,0.20102,0.0,na,0.47,,,,,
JVASP-70895,Li2BeGa,0.00402,0.0,na,0.2486,,,,,
JVASP-71263,BeCrCu,0.20448,0.0,na,0.3092,,,,,
JVASP-74304,SrBeBr2,-0.80384,0.912,1.375,0.8795,,,,,
JVASP-70863,BeV2Re,0.09175,0.0,na,0.3844,,,,,
JVASP-71303,HfBe2W,0.25956,0.0,na,0.5656,,,,,
JVASP-96040,Mn2SiSe4,-0.33514,0.01,na,0.0888,,,,,
JVASP-70080,ZrBe2Sn,0.2431,0.0,na,0.5786,,,,,
JVASP-72037,TiBeSi2,-0.2117,0.0,na,0.1691,,,,,
JVASP-70324,NaMnBe2,0.66956,0.0,na,0.849,,,,,
JVASP-94090,RbMg6V,0.38925,0.0,na,0.393,,,,,
JVASP-48183,LiP2WO7,-2.118,1.275,na,0.1032,,,,,
JVASP-69410,TaMnBe,0.29233,0.0,na,0.5588,,,,,
JVASP-14563,DyPt3,-1.07485,0.0,na,0.0126,,,,,
JVASP-71451,BeInP,-0.12999,0.0,0.0,0.0358,,,,,
JVASP-71373,CaBe2V,0.25195,0.0,na,0.4079,,,,,
JVASP-70155,Be2VTe,0.35866,0.0,0.0,0.6558,,,,,
JVASP-63890,Ba4PCl,-0.05554,0.0,na,1.1375,,,,,
JVASP-70620,MnBe2Tc,-0.13974,0.0,0.0,0.0366,,,,,
JVASP-71604,TaBe2Se,0.14743,0.0,na,0.713,,,,,
JVASP-92515,Ho2SbO2,-2.91438,0.0,na,0.0,,,,,
JVASP-92739,Dy2AlNi2,-0.60185,0.0,na,0.0069,,,,,
JVASP-69525,ScBe2Re,0.07834,0.0,0.0,0.3472,,,,,
JVASP-93721,CeMg2,-0.00308,0.0,na,0.0165,,,,,
JVASP-70969,Na4SrBe,0.41123,0.0,0.0,0.4334,,,,,
JVASP-91254,MnGeRh,-0.27272,0.0,na,0.0603,,,,,
JVASP-44296,Mn4O7F,-1.86716,0.0,na,0.0,,,,,
JVASP-93366,TmB2Ir3,-0.66999,0.0,na,0.0,,,,,
JVASP-71526,Sr2BeMo,0.53355,0.0,na,0.644,,,,,
JVASP-87102,DyCoSi2,-0.74712,0.0,na,0.0,,,,,
JVASP-71827,ScBeCo2,-0.11422,0.0,0.0,0.2705,,,,,
JVASP-71011,LaBeRh,-0.56667,0.0,na,0.0525,,,,,
JVASP-19817,SmN,-1.69912,0.0,0.861,0.0,,,,,
JVASP-69784,MgBe2Pb,0.46239,0.0,na,0.5089,,,,,
JVASP-74174,ZrTiBe2,0.11793,0.0,na,0.2907,,,,,
JVASP-71485,LiBe2Ga,0.22225,0.0,na,0.3933,,,,,
JVASP-71039,LiMg2Be,0.15191,0.0,na,0.2181,,,,,
JVASP-70706,Be2PtW,-0.40698,0.0,na,0.1202,,,,,
JVASP-72304,BeCd2Ru,0.30327,0.0,na,0.4431,,,,,
JVASP-69711,HfBe2Sn,0.19455,0.0,na,0.4956,,,,,
JVASP-71147,YBe2Pt,-0.12462,0.0,na,0.6331,,,,,
JVASP-70413,Be2TeOs,0.64181,0.0,na,0.8533,,,,,
JVASP-71116,BeZn2Bi,0.38941,0.0,na,0.3894,,,,,
JVASP-69920,Be2ZnRe,0.07487,0.0,na,0.3436,,,,,
JVASP-74349,SrBe2Tc,0.49991,0.0,na,0.6642,,,,,
JVASP-71339,Be2SnBi,0.67915,0.0,na,0.6792,,,,,
JVASP-71569,TiBe2V,-0.03717,0.0,0.0,0.1356,,,,,
JVASP-74211,NaBe2Ru,0.34047,0.0,na,0.6133,,,,,
JVASP-91331,Fe3BO6,-1.67762,0.0,na,0.0439,,,,,
JVASP-63891,Ba4ZrGe,0.71817,0.0,na,1.0448,,,,,
JVASP-93818,TmCuSn,-0.5396,0.0,na,0.0,,,,,
JVASP-50873,Li2H2SeO5,-1.35589,4.046,na,0.0203,,,,,
JVASP-85546,LiNiO2,-0.67338,0.0,na,0.8068,,,,,
JVASP-48447,Li2VO2F,-2.61264,0.0,na,0.1212,,,,,
JVASP-71265,BePSe2,-0.02999,0.0,na,0.4576,,,,,
JVASP-70933,Y2BeGe,-0.14365,0.0,na,0.4403,,,,,
JVASP-70160,Be2FeCl,0.57507,0.0,na,1.2863,,,,,
JVASP-42798,Mn3O2F4,-2.16036,0.0,na,0.0,,,,,
JVASP-71304,KBe2Mo,0.5085,0.0,na,0.7316,,,,,
JVASP-70325,Be2NbSi,0.10715,0.0,na,0.4256,,,,,
JVASP-70896,ScBe2Hg,0.21394,0.0,na,0.4422,,,,,
JVASP-71219,Na2BeBr,-0.14611,0.0,na,0.7096,,,,,
JVASP-71453,BeSb2P,0.62084,0.0,na,0.7069,,,,,
JVASP-72039,BeIn2Mo,0.38491,0.0,na,0.498,,,,,
JVASP-71374,Y2HfBe,0.08919,0.0,na,0.1726,,,,,
JVASP-56277,VSe,-0.23519,0.0,0.0,0.4502,,,,,
JVASP-71078,BeTc2Hg,0.21441,0.0,0.0,0.2965,,,,,
JVASP-71012,Sc2BeCu,-0.02733,0.0,na,0.1994,,,,,
JVASP-74305,Be2NbMo,0.05324,0.0,na,0.2904,,,,,
JVASP-71412,HfMnBe2,-0.01913,0.0,na,0.2497,,,,,
JVASP-70414,Be2InW,0.24668,0.0,na,0.4605,,,,,
JVASP-92261,FeCu2GeS4,-0.38463,0.0,0.0,0.0489,,,,,
JVASP-70787,BeGa2Br,0.21957,0.0,na,0.6204,,,,,
JVASP-70258,Be2CdOs,0.25491,0.0,0.0,0.2574,,,,,
JVASP-106043,LiIn2CuTe4,-0.43689,0.57,1.322,0.0079,,,,,
JVASP-71486,BeHgMo,0.68104,0.0,0.0,0.8283,,,,,
JVASP-14803,TiTe,-0.36794,0.0,0.0,0.3347,,,,,
JVASP-71724,BeFe2Ni,-0.0734,0.0,0.0,0.1622,,,,,
JVASP-63893,Ba4HfP,0.80345,0.0,0.0,1.2801,,,,,
JVASP-1321,BeSe,-0.89097,2.848,3.885,0.0393,,,,,
JVASP-105755,ErScRu2,-0.51443,0.0,na,0.0,,,,,
JVASP-92806,U2BiN2,-0.65611,0.0,na,0.606,,,,,
JVASP-92314,SrMg,0.16304,0.0,na,0.2835,,,,,
JVASP-71189,BeCu2Bi,0.3247,0.0,na,0.3793,,,,,
JVASP-71117,BeFeTc2,-0.04231,0.0,na,0.059,,,,,
JVASP-92598,LaMnO3,-2.83404,0.0,na,0.0551,,,,,
JVASP-86567,K3Pd2O4,-1.20513,0.013,na,0.0,,,,,
JVASP-94279,FeGe2,-0.02157,0.0,na,0.0461,,,,,
JVASP-85784,TiH8N2F6,-1.70327,4.681,4.757,0.0112,,,,,
JVASP-71148,BeGaPt2,-0.46092,0.0,na,0.0485,,,,,
JVASP-71606,Be2InW,0.35649,0.0,na,0.5703,,,,,
JVASP-69858,Be2PtRh,-0.35968,0.0,na,0.3949,,,,,
JVASP-71987,BeSi2Sn,0.67416,0.0,na,0.6765,,,,,
JVASP-90934,AlSiTc2,3.14807,0.0,na,3.5363,,,,,
JVASP-93264,FeN2Cl2,0.98011,0.0,na,1.4364,,,,,
JVASP-69621,Be2VFe,-0.16551,0.0,na,0.0748,,,,,
JVASP-92267,HgIrO3,-0.28355,0.0,na,0.3838,,,,,
JVASP-70326,Be2MoPb,0.71557,0.0,0.0,0.9365,,,,,
JVASP-15558,TbGe2Pd2,-0.77092,0.0,na,0.0,,,,,
JVASP-74175,BeCdIn,0.38478,0.0,na,0.3898,,,,,
JVASP-106123,CaBeSi,-0.40433,0.0,0.0,0.0145,,,,,
JVASP-94910,Mn2SnS4,-0.47838,0.0,na,0.1261,,,,,
JVASP-70470,LiBe2Bi,0.36448,0.0,na,0.5634,,,,,
JVASP-95178,Er2Ga10Os3,-0.40122,0.0,na,0.0,,,,,
JVASP-94965,B6Pb,0.10195,0.981,na,0.1019,,,,,
JVASP-93129,CeMg6B,0.18822,0.0,na,0.2924,,,,,
JVASP-92449,PrCo2P2,-0.96617,0.0,na,0.0001,,,,,
JVASP-105971,TiW,-0.03375,0.0,na,0.2447,,,,,
JVASP-72046,BeCrCd2,0.58353,0.0,na,0.667,,,,,
JVASP-74306,KBe2P,0.30646,0.0,na,0.5925,,,,,
JVASP-71527,BeCuHg2,0.40283,0.0,0.0,0.4574,,,,,
JVASP-71570,BeTl2Se,0.00858,0.0,na,0.4737,,,,,
JVASP-69787,MnBe2Tl,0.41172,0.0,0.0,0.5881,,,,,
JVASP-93186,HfMg6Ti,0.18202,0.0,na,0.1849,,,,,
JVASP-48128,Li2MnF4,-2.73312,2.96,na,0.1194,,,,,
JVASP-70260,Be2TeSe,0.23898,0.0,na,0.9157,,,,,
JVASP-70934,Hf2BeFe,-0.06716,0.0,na,0.1805,,,,,
JVASP-71079,BeP4Pt,0.90626,0.0,na,1.3064,,,,,
JVASP-69921,YBeCd,-0.11617,0.0,na,0.1449,,,,,
JVASP-70897,KBe2Cd,0.96036,0.0,0.0,0.9906,,,,,
JVASP-18940,VSe2,-0.71318,0.0,na,0.0127,,,,,
JVASP-93915,CaC2,-0.11253,0.0,na,0.0754,,,,,
JVASP-18951,Li2Pd,-0.41663,0.0,na,0.0,,,,,
JVASP-71413,BeMoPb2,0.48423,0.0,na,0.5947,,,,,
JVASP-70546,Be2CuMo,0.24727,0.0,0.0,0.4682,,,,,
JVASP-71883,Li2BeSi,0.01065,0.0,0.0,0.205,,,,,
JVASP-94865,MgAl2Se4,-1.04849,1.224,na,0.0015,,,,,
JVASP-87186,TmFeO3,-2.67336,0.0,0.0,0.0137,,,,,
JVASP-71660,Li2BeNb,0.48308,0.0,na,0.5778,,,,,
JVASP-16019,ErCuSi,-0.66322,0.0,na,0.0,,,,,
JVASP-71725,YBeBr,-0.25093,0.168,0.334,0.6581,,,,,
JVASP-63894,Ba4NbGe,0.90163,0.0,na,1.1917,,,,,
JVASP-71340,Be2SnPb,0.66015,0.0,na,0.6602,,,,,
JVASP-94760,RbCaMg6,0.1554,0.0,na,0.2124,,,,,
JVASP-94236,Mg6FeC,0.38411,0.0,na,0.385,,,,,
JVASP-71266,Na2BeHg,0.27565,0.0,na,0.3906,,,,,
JVASP-72313,BeHg2Ir,0.6156,0.0,na,0.7698,,,,,
JVASP-105892,Ba2NdTaO6,-3.33939,3.57,na,0.0026,,,,,
JVASP-71149,Be2RePt,-0.28217,0.0,na,0.1184,,,,,
JVASP-70834,Ca4BeIr,0.83779,0.0,na,1.0464,,,,,
JVASP-43819,Mn2OF3,-2.25079,0.0,0.0,0.0,,,,,
JVASP-15082,SbPt,-0.37457,0.0,na,0.0,,,,,
JVASP-71375,BeNiGe,0.10624,0.0,na,0.4179,,,,,
JVASP-44621,Li5Mn3Nb2O10,-2.16312,0.0,0.0,0.1066,,,,,
JVASP-70788,Zr2BeGa,-0.08293,0.0,na,0.3357,,,,,
JVASP-93867,ThGeTe,-1.04015,0.0,na,0.0,,,,,
JVASP-69862,HfBe2Hg,0.42407,0.0,na,0.6026,,,,,
JVASP-85443,EuGe2Ir,-0.75292,0.0,na,0.0,,,,,
JVASP-60632,Mg3Si2H4O9,-2.37886,4.406,na,0.0,,,,,
JVASP-69622,NaHfBe2,0.36704,0.0,na,0.5369,,,,,
JVASP-71190,BeNiTe2,0.06115,0.0,na,0.3868,,,,,
JVASP-70082,KYBe2,0.76031,0.174,0.127,0.7625,,,,,
JVASP-71780,BeGa2Mo,-0.09521,0.0,0.0,0.0383,,,,,
JVASP-70013,Be2CdTc,0.31073,0.0,0.0,0.4775,,,,,
JVASP-93321,CeMg2,0.00426,0.0,na,0.0238,,,,,
JVASP-105691,K2RbPrF6,-3.27478,5.26,9.442,0.1955,,,,,
JVASP-92384,CaSi2Ni2,-0.65065,0.0,na,0.0,,,,,
JVASP-1384,LiPb,-0.29319,0.0,na,0.0,,,,,
JVASP-70753,SrBeV2,0.44373,0.0,0.0,0.5196,,,,,
JVASP-71941,ScBeNi2,-0.3346,0.0,0.0,0.189,,,,,
JVASP-105826,Np2O3,-3.06498,0.0,na,0.1267,,,,,
JVASP-71487,LiBeSb2,0.07647,0.0,na,0.3253,,,,,
JVASP-92898,Mg6SbMo,0.14779,0.0,na,0.2825,,,,,
JVASP-70935,SrBeCd4,0.164,0.0,na,0.3954,,,,,
JVASP-93492,LiMnAs,-0.301,0.0,na,0.1371,,,,,
JVASP-70621,HfBe2Fe,0.05276,0.0,0.0,0.3627,,,,,
JVASP-93654,LaCo5,-0.04391,0.0,na,0.0402,,,,,
JVASP-63895,Ba4CuPd,0.65822,0.0,na,0.9358,,,,,
JVASP-72049,BeNb2Tl,0.28281,0.0,na,0.3771,,,,,
JVASP-71118,YBe2Tl,0.2511,0.0,na,0.4524,,,,,
JVASP-74260,Be2CrTc,0.04731,0.0,0.0,0.2116,,,,,
JVASP-70970,BeCdGe2,0.40045,0.0,na,0.4029,,,,,
JVASP-69526,Be2FeNi,-0.16397,0.0,na,0.1711,,,,,
JVASP-71040,YHfBe2,0.07843,0.0,na,0.2453,,,,,
JVASP-71342,TiBe2Br,0.36281,0.0,na,0.9655,,,,,
JVASP-71454,BeGaPb2,0.33642,0.0,na,0.3364,,,,,
JVASP-69411,Be2CuRh,-0.22511,0.0,na,0.1797,,,,,
JVASP-95038,Sr2BBrN2,-1.57925,2.598,4.178,0.0,,,,,
JVASP-94139,Mg6CoSi,0.09598,0.0,na,0.2203,,,,,
JVASP-105623,NaLi2AlF6,-3.14203,6.11,na,0.2592,,,,,
JVASP-70263,YBe2Pd,-0.22059,0.0,na,0.2671,,,,,
JVASP-70327,Be2TlCu,0.43382,0.0,na,0.543,,,,,
JVASP-71267,BeBiOs,0.67717,0.0,na,0.6772,,,,,
JVASP-94091,Mg6NiW,0.21609,0.0,na,0.376,,,,,
JVASP-3693,Mg2FeH6,-0.32325,1.935,na,0.0,,,,,
JVASP-14969,TiRh,-0.75048,0.0,0.0,0.0,,,,,
JVASP-96492,Mg2SiO4,-3.0196,4.94,na,0.0306,,,,,
JVASP-15987,HfSiS,-1.19299,0.0,0.0,0.0,,,,,
JVASP-70835,KBe2Br,0.08494,0.0,na,1.0199,,,,,
JVASP-71726,BeNbW,0.21607,0.0,na,0.5274,,,,,
JVASP-69924,Be2RhSe,0.0675,0.0,na,0.8322,,,,,
JVASP-70415,Be2CuHg,0.40676,0.0,0.0,0.516,,,,,
JVASP-71571,Be2ZnSe,0.41321,0.0,na,0.8784,,,,,
JVASP-71305,KTiBe2,0.42408,0.0,na,0.599,,,,,
JVASP-14637,PuC,-0.24227,0.0,0.0,0.003,,,,,
JVASP-74350,MgBe2Sn,0.46066,0.0,na,0.5569,,,,,
JVASP-71828,TiBeSe2,-0.21551,0.0,0.0,0.8276,,,,,
JVASP-70898,Be2BiPb,0.82134,0.0,na,0.8215,,,,,
JVASP-70789,SrBeW2,0.50948,0.0,na,0.8245,,,,,
JVASP-70091,YBe2Re,0.44898,0.0,na,0.7178,,,,,
JVASP-69790,KBe2Cu,1.07281,0.0,na,1.1842,,,,,
JVASP-69864,Be2VRh,-0.28591,0.372,0.297,0.1032,,,,,
JVASP-70164,LiTiBe2,0.10844,0.0,0.082,0.2815,,,,,
JVASP-74307,Be2NbSe,0.42767,0.0,na,0.9936,,,,,
JVASP-32309,TaTeBr9,-0.67292,1.949,2.441,0.0,,,,,
JVASP-63896,Ba4FeCo,1.30773,0.0,na,1.3189,,,,,
JVASP-71414,Be2FeCl,0.13316,0.0,0.0,0.8443,,,,,
JVASP-70547,BeNiSb,0.12384,0.0,na,0.4355,,,,,
JVASP-70864,HfBe2V,0.09424,0.0,na,0.2611,,,,,
JVASP-74176,BeCuMo,0.26972,0.0,0.0,0.417,,,,,
JVASP-15743,ErSi2Pt2,-0.94615,0.0,0.0,0.0661,,,,,
JVASP-71528,MgBeTl2,0.32623,0.0,na,0.353,,,,,
JVASP-15396,SrFe2As2,-0.58403,0.0,na,0.0,,,,,
JVASP-18408,CrH,0.20287,0.0,0.0,0.2036,,,,,
JVASP-71191,BeNi4Pd,0.09757,0.0,na,0.2985,,,,,
JVASP-70971,TiBePd4,0.0315,0.0,na,0.6541,,,,,
JVASP-4618,YbAsPd,-1.05977,0.0,na,0.0,,,,,
JVASP-71013,Mg2BeFe,0.1089,0.0,0.0,0.2102,,,,,
JVASP-71376,BeHgPd,0.103,0.0,na,0.4765,,,,,
JVASP-94337,PrSiPt,-1.11235,0.0,na,0.0,,,,,
JVASP-70014,TiBe2Ge,0.15079,0.0,na,0.5006,,,,,
JVASP-70754,BeGePd2,-0.31518,0.0,na,0.1721,,,,,
JVASP-72053,BeFe2Re,0.0679,0.0,na,0.2389,,,,,
JVASP-71343,BeBrCl2,-0.00804,0.0,na,1.1113,,,,,
JVASP-70936,BeW2Cl,0.11923,0.0,na,0.9756,,,,,
JVASP-95474,Yb2NaLiF8,-3.16207,0.0,na,0.077,,,,,
JVASP-69529,Be2NiHg,0.24953,0.0,na,0.5072,,,,,
JVASP-16144,ThCr2B6,-0.57697,0.0,0.0,0.0,,,,,
JVASP-70707,Be2CrP,-0.16626,0.0,0.0,0.1063,,,,,
JVASP-71572,BeZnIn,0.37934,0.0,na,0.3811,,,,,
JVASP-63897,Ba4HfNi,1.151,0.0,na,1.3372,,,,,
JVASP-71455,MnBe2Br,0.38287,0.0,na,0.916,,,,,
JVASP-71268,Be2NiP,-0.15891,0.0,na,0.1785,,,,,
JVASP-70836,Li2BeCu,0.02198,0.0,na,0.1123,,,,,
JVASP-71119,HfBeNb2,0.10641,0.0,na,0.2007,,,,,
JVASP-70416,Be2TeCl,0.32134,0.0,na,1.0925,,,,,
JVASP-74216,BeCo4Pt,0.14936,0.0,0.0,0.3767,,,,,
JVASP-105756,ErTmTl2,-0.31171,0.0,na,0.0013,,,,,
JVASP-91256,BaPr2NiO5,-2.76994,0.0,na,0.0802,,,,,
JVASP-69866,SrScBe2,0.18142,0.0,na,0.307,,,,,
JVASP-94376,Mg2Ti,0.14974,0.0,na,0.1497,,,,,
JVASP-93429,LiHO,-1.6446,4.357,na,0.0218,,,,,
JVASP-70329,Be2CuGe,0.25468,0.0,na,0.3639,,,,,
JVASP-96042,CaRh2O4,-1.64948,0.851,na,0.0,,,,,
JVASP-91415,LiAlSi2O6,-2.97344,5.765,na,0.0,,,,,
JVASP-5188,PbIF,-1.59793,2.013,3.016,0.0,,,,,
JVASP-92846,BaMg6Nb,0.22158,0.0,na,0.3001,,,,,
JVASP-74351,TiBe2P,-0.32087,0.0,na,0.3286,,,,,
JVASP-71306,TaBe2Nb,0.31669,0.0,na,0.5124,,,,,
JVASP-69412,Be2InHg,0.5083,0.0,na,0.5096,,,,,
JVASP-85710,Li2H2Pd,-0.46912,0.0,0.0,0.0,,,,,
JVASP-105973,U2CS,-0.86748,0.0,na,0.0,,,,,
JVASP-92315,YMg,0.34027,0.0,na,0.445,,,,,
JVASP-91332,FeNi2BO5,-1.41997,0.0,na,0.0795,,,,,
JVASP-53970,NdMg2Ag,-0.12294,0.0,na,0.1049,,,,,
JVASP-74177,BePb2S,0.42544,0.0,na,1.0639,,,,,
JVASP-70549,CaBe2Se,0.0681,0.0,na,1.1561,,,,,
JVASP-92268,CaZn2N2,-0.54219,0.952,na,0.0,,,,,
JVASP-71988,BeTlFe2,0.48092,0.0,0.0,0.5831,,,,,
JVASP-71192,LiBeSe2,-0.53986,0.0,na,0.4501,,,,,
JVASP-71885,BeSiP2,0.52059,0.0,na,0.965,,,,,
JVASP-74261,BeReBi2,1.06215,0.0,na,1.1965,,,,,
JVASP-106124,CaDyAl4,-0.45414,0.0,na,0.0172,,,,,
JVASP-63899,Ba4GeTe,-0.01181,0.0,na,0.9141,,,,,
JVASP-71080,BeZn2Ru,-0.05323,0.0,0.0,0.1436,,,,,
JVASP-60633,ZnH2SeO4,-1.09482,4.244,na,0.0084,,,,,
JVASP-69925,Be2SnCl,0.16761,0.0,na,0.7273,,,,,
JVASP-72054,BeNi2W,-0.11346,0.0,0.0,0.2627,,,,,
JVASP-70865,Y2BeBi,0.0273,0.0,na,0.539,,,,,
JVASP-71041,BeCdW2,0.18386,0.0,na,0.5014,,,,,
JVASP-71220,Mn2BeIr,-0.20132,0.0,0.0,0.0637,,,,,
JVASP-50819,Hf2P2O9,-3.04009,4.999,na,0.0074,,,,,
JVASP-70624,Be2TlP,0.52089,0.0,na,0.65,,,,,
JVASP-70099,BeZnOs,0.17442,0.0,na,0.1744,,,,,
JVASP-72331,TiBeCo2,-0.45852,0.0,0.0,0.0002,,,,,
JVASP-1354,TbCu,-0.29519,0.0,na,0.0,,,,,
JVASP-69713,Be2SiNi,-0.15579,0.0,na,0.1051,,,,,
JVASP-86364,GaPd2,-0.60261,0.0,na,0.0,,,,,
JVASP-90964,NbSnRu2,0.56165,0.0,na,0.7438,,,,,
JVASP-71573,Be2InSe,0.13938,0.0,na,0.6059,,,,,
JVASP-92644,MnNCl3,1.04268,0.0,na,1.6826,,,,,
JVASP-69791,Be2TcPd,-0.24618,0.0,na,0.1161,,,,,
JVASP-94866,Fe3Se4,-0.15936,0.0,na,0.1728,,,,,
JVASP-95336,YSiNi,-0.83036,0.0,na,0.0,,,,,
JVASP-70837,LaMgBe,0.16274,0.0,na,0.2391,,,,,
JVASP-69530,Be2CrRe,-0.00054,0.0,na,0.2682,,,,,
JVASP-70899,Be2GaTe,0.68599,0.0,na,0.8975,,,,,
JVASP-92451,NiO2,-0.43177,0.0,na,0.401,,,,,
JVASP-71307,BeTcPb,0.72455,0.0,na,0.8341,,,,,
JVASP-71488,Y2HfBe,0.08895,0.0,na,0.1724,,,,,
JVASP-71377,BeHgPb2,0.39542,0.0,na,0.3954,,,,,
JVASP-70709,BeZnRe,0.23279,0.0,na,0.412,,,,,
JVASP-92694,CaSi2Rh2,-0.95378,0.0,na,0.0,,,,,
JVASP-71120,LiBe2Re,-0.04418,0.0,na,0.2248,,,,,
JVASP-70015,Be2TlNi,0.22052,0.0,0.0,0.4782,,,,,
JVASP-70473,Be2CoBr,0.74532,0.0,0.0,1.3488,,,,,
JVASP-71150,CaBeNi2,0.03022,0.0,na,0.3789,,,,,
JVASP-15602,PrAg2Ge2,-0.42582,0.0,na,0.0,,,,,
JVASP-71344,BeInPb2,0.37381,0.0,na,0.3804,,,,,
JVASP-71830,BeTcGe2,0.30396,0.0,na,0.4209,,,,,
JVASP-71270,MnBeSn2,0.31323,0.0,na,0.4014,,,,,
JVASP-50711,LiCuPO4,-1.87298,0.0,na,0.0571,,,,,
JVASP-50362,BaNa4O3,-1.65869,1.823,4.248,0.1076,,,,,
JVASP-42291,Co3OF5,-1.65783,0.0,0.0,0.043,,,,,
JVASP-95671,La2Fe2I,-0.57386,0.0,na,0.0,,,,,
JVASP-93769,TiGeSb,-0.40231,0.0,na,0.0,,,,,
JVASP-93916,TmNi4Au,-0.45065,0.0,na,0.0,,,,,
JVASP-94966,BiB6,0.33272,0.0,na,0.3327,,,,,
JVASP-94237,Mg6CrFe,0.291,0.0,na,0.2915,,,,,
JVASP-92557,YSi2Ir2,-0.86767,0.0,na,0.1764,,,,,
JVASP-94911,CaNi5H,-0.16086,0.0,na,0.0702,,,,,
JVASP-42538,Ta2CrNO5,-2.45311,0.417,na,0.0672,,,,,
JVASP-93131,CeMg6Si,-0.00654,0.0,na,0.1571,,,,,
JVASP-92386,InBiO3,-1.07712,0.064,na,0.4562,,,,,
JVASP-92953,Fe3Ge,-0.06197,0.0,na,0.0171,,,,,
JVASP-70552,Be2ReRu,-0.15161,0.0,na,0.1372,,,,,
JVASP-71781,BeCo2Te,0.2902,0.0,0.0,0.5264,,,,,
JVASP-69629,Be2NbPb,0.33165,0.0,0.0,0.5202,,,,,
JVASP-71943,Li2MnBe,0.4035,0.0,0.0,0.4921,,,,,
JVASP-70755,Be2GaPb,0.75146,0.0,na,0.7515,,,,,
JVASP-74310,Be2GaCu,0.15092,0.0,na,0.2742,,,,,
JVASP-63900,Ba4TcMo,1.66067,0.0,na,1.6607,,,,,
JVASP-48261,Li3Fe3O8,-1.69049,0.0,na,0.0242,,,,,
JVASP-71530,Be2ZnPb,0.58878,0.0,na,0.5888,,,,,
JVASP-92741,NClO3,1.36231,0.0,na,1.4748,,,,,
JVASP-74352,BeSiTc,0.21347,0.0,na,0.5171,,,,,
JVASP-70791,Na2BeBr,-0.14629,0.0,na,0.7094,,,,,
JVASP-71661,BeCu2Ni,-0.07377,0.0,na,0.16,,,,,
JVASP-105893,Nd2CdRh2,-0.64352,0.0,na,0.0,,,,,
JVASP-50879,Li3CrS4,-1.00522,0.0,1.801,0.1181,,,,,