jid,formula,formation_energy_per_atom,optb88vdw_bandgap,mbj_bandgap,ehull,spacegroup_number,natoms,volume,bulk_modulus_kv,shear_modulus_gv
JVASP-65585,Ba2MnTl,0.13384,0.0,na,0.381,,,,,
JVASP-91807,OsN,0.4657,0.0,na,0.4734,,,,,
JVASP-91956,SrMg6Fe,0.19436,0.0,na,0.2551,,,,,
JVASP-48681,Na14Ni2O9,-1.29137,0.0,na,0.1144,,,,,
JVASP-98788,KTeOF3,-2.28866,4.139,na,0.0,,,,,
JVASP-65198,ZrTa4Be,0.48252,0.0,na,0.5544,,,,,
JVASP-88740,Na6FeSe4,-0.95434,0.0,na,0.0444,,,,,
JVASP-3546,K2PdCl4,-1.44573,1.518,na,0.0,,,,,
JVASP-43790,LiFeF3,-2.45641,0.21,na,0.029,,,,,
JVASP-12118,LiNiP2S6,-0.45195,0.0,na,0.0,,,,,
JVASP-65697,BaSn2Se,-0.43267,0.0,na,0.6633,,,,,
JVASP-86290,CaAlSi,-0.46717,0.0,na,0.0026,,,,,
JVASP-28367,Mg2ZnAs2,-0.43748,1.092,1.737,0.0716,,,,,
JVASP-65443,BaMnIn2,-0.00902,0.0,0.0,0.411,,,,,
JVASP-15641,HoMn2Si2,-0.56524,0.0,0.0,0.0,,,,,
JVASP-88036,RbNbGe3O9,-2.04615,3.211,na,0.0274,,,,,
JVASP-90255,Tb6CoTe2,-0.69555,0.0,na,0.0,,,,,
JVASP-86168,RbCrCl3,-1.43614,0.057,na,0.0299,,,,,
JVASP-85731,RbFeMo2O8,-1.99882,0.0,0.0,0.0526,,,,,
JVASP-98907,B5H12NO12,-1.5802,5.659,na,0.0,,,,,
JVASP-85817,TiMnO3,-2.42361,0.275,na,0.1513,,,,,
JVASP-47993,Mn3OF5,-2.2935,0.0,0.0,0.0,,,,,
JVASP-42828,Li7FeO4F2,-2.20896,0.625,na,0.1277,,,,,
JVASP-16086,Hf,0.07073,0.0,0.0,0.0,,,,,
JVASP-65620,Ba2YBe,0.59646,0.0,0.0,0.5965,,,,,
JVASP-90185,ThGaRh,-0.91618,0.0,0.0,0.0,,,,,
JVASP-90553,SmFeSb2,-0.51641,0.0,na,0.0998,,,,,
JVASP-43107,Li2Fe3SnO8,-1.6847,0.0,0.0,0.06,,,,,
JVASP-65735,BaZr4Nb,0.65876,0.0,0.0,0.6588,,,,,
JVASP-16046,Ni3GeC,0.10423,0.0,na,0.3222,,,,,
JVASP-62061,Ba3Ge2B6O16,-2.64652,4.241,6.189,0.011,,,,,
JVASP-86458,Ho2Ga8Co,-0.47492,0.0,na,0.0058,,,,,
JVASP-89994,MnAsRu,0.03527,0.0,na,0.2093,,,,,
JVASP-62909,DyB6,-0.41596,0.0,0.0,0.0456,,,,,
JVASP-65390,BaHfNi2,-0.19871,0.0,na,0.2257,,,,,
JVASP-98145,Na3AlP3NO9,-2.37933,5.148,na,0.0,,,,,
JVASP-97717,Os2O3F7,-1.55022,0.62,na,0.0,,,,,
JVASP-65158,BeTlCu4,0.32311,0.0,na,0.3595,,,,,
JVASP-14590,Hf,0.0,0.0,0.0,0.0,,,,,
JVASP-17253,FeO2,-1.27287,0.0,0.0,0.1475,,,,,
JVASP-90871,UNiSb2,-0.33158,0.0,na,0.06,,,,,
JVASP-97617,TlMo6O17,-2.102,0.0,na,0.0,,,,,
JVASP-88869,Zn8B3H3O14,-1.73524,2.616,na,0.0406,,,,,
JVASP-65275,MnBePd,0.13259,0.0,0.0,0.5061,,,,,
JVASP-62451,Ho2SnAu2,-0.89299,0.0,na,0.0127,,,,,
JVASP-98655,ZnSiAg2O4,-1.54734,0.661,na,0.011,,,,,
JVASP-65547,Ba2MnIn,0.12286,0.0,0.0,0.4281,,,,,
JVASP-5356,S8O,-0.14989,2.087,na,0.0457,,,,,
JVASP-86747,TbGa2Co3,-0.37524,0.0,na,0.0159,,,,,
JVASP-85878,Ce7O12,-3.69111,0.0,na,0.0,,,,,
JVASP-89919,CoNiAs,-0.12372,0.0,na,0.0617,,,,,
JVASP-97906,H7NO6,-0.79951,3.203,na,0.0112,,,,,
JVASP-62767,LiBIr,-0.52026,0.0,na,0.0,,,,,
JVASP-98218,Tl6Si2O7,-1.67389,1.392,na,0.0,,,,,
JVASP-61785,SmSb2Au,-0.69109,0.0,0.0,0.0371,,,,,
JVASP-65511,BaV2Os,1.07013,0.0,0.0,1.3188,,,,,
JVASP-18403,H2Se,0.83898,0.0,0.0,0.8399,,,,,
JVASP-98344,Na2CrH8O8,-1.41369,3.007,na,0.0,,,,,
JVASP-65235,BeInGa4,0.4076,0.0,na,0.4085,,,,,
JVASP-65310,Hf4BeIn,0.60817,0.0,na,0.7156,,,,,
JVASP-86112,KNaB2H8,-0.401,6.347,8.783,0.0105,,,,,
JVASP-98542,Li2B4O7,-2.60322,6.158,na,0.0,,,,,
JVASP-97546,CuH20Se2N2O14,-0.79468,0.45,na,0.0981,,,,,
JVASP-14630,Ni,0.0,0.0,na,0.0,,,,,
JVASP-97789,La2MnCoO6,-2.72356,0.0,na,0.0,,,,,
JVASP-92166,MnSi,-0.33168,0.0,0.0,0.0,,,,,
JVASP-91575,BiI3,-0.393,1.655,2.563,0.0803,,,,,
JVASP-86992,TbPt,-1.2764,0.0,na,0.0722,,,,,
JVASP-42156,Li4Fe3SbO8,-1.66351,0.0,0.0,0.116,,,,,
JVASP-62279,PAuClF3,-1.7146,3.251,4.443,0.0003,,,,,
JVASP-42744,LiMnBO3,-2.1797,1.804,na,0.0423,,,,,
JVASP-49841,HgPtO2,-0.36848,0.0,na,0.108,,,,,
JVASP-97474,H12W3C4NCl9,-0.38745,0.0,na,0.1435,,,,,
JVASP-86618,Fe2PO5,-1.73244,0.0,na,0.0065,,,,,
JVASP-65199,Li4BeTe,0.1051,0.0,na,0.6614,,,,,
JVASP-97846,CaCr2Cu3Sb2O12,-1.65176,0.148,na,0.0498,,,,,
JVASP-42248,Ta2O5,-2.97398,3.104,na,0.0694,,,,,
JVASP-48871,Fe4O3F5,-1.79128,0.0,na,0.099,,,,,
JVASP-90827,LiTmSn2,-0.38152,0.0,na,0.1302,,,,,
JVASP-98790,Ca2ZrSi4O12,-3.1993,4.938,na,0.0,,,,,
JVASP-89072,Ho2CN2O2,-2.3776,3.962,na,0.0,,,,,
JVASP-88404,SrMnO3,-2.50281,0.367,na,0.0207,,,,,
JVASP-87256,MnF4,-2.321,1.21,na,0.0,,,,,
JVASP-1408,AlSb,-0.24311,1.322,1.777,0.0,,,,,
JVASP-86692,NdMg2Ni9,-0.28974,0.0,na,0.019,,,,,
JVASP-42331,Fe3OF5,-1.93014,0.0,na,0.04,,,,,
JVASP-86225,Tl2HgGeTe4,-0.15027,0.31,na,0.0082,,,,,
JVASP-91623,C,0.23802,3.536,4.508,0.0,,,,,
JVASP-98423,DyH9C5N2O8,-1.03524,4.631,na,0.0693,,,,,
JVASP-97718,TaPbF7,-3.13399,5.045,na,0.0,,,,,
JVASP-61514,LiAuF6,-1.553,2.015,na,0.0,,,,,
JVASP-65698,BaSiP2,0.10695,0.0,na,0.7966,,,,,
JVASP-97668,LiH20C8BrO4,-0.38565,4.935,na,0.162,,,,,
JVASP-97420,AsCS3N2F11,-1.28957,3.276,na,0.0,,,,,
JVASP-97332,SiO2,-2.87281,5.644,na,0.0285,,,,,
JVASP-62617,UCoB4,-0.48995,0.0,0.0,0.0,,,,,
JVASP-97374,NaLi3Si6,-0.17038,0.208,na,0.0,,,,,
JVASP-86055,Zr2Al3C4,-0.60186,0.0,na,0.0011,,,,,
JVASP-61273,Li3As,-0.78007,0.764,1.108,0.0,,,,,
JVASP-60927,K3AsSe4,-0.87054,1.108,2.123,0.0009,,,,,
JVASP-65447,BaMn2Ga,0.4652,0.0,0.0,0.6717,,,,,
JVASP-65772,BaSrCd2,-0.25163,0.0,na,0.17,,,,,
JVASP-65622,BaSn2Sb,-0.36284,0.0,na,0.1852,,,,,
JVASP-91909,RbMg6W,0.38078,0.0,na,0.4542,,,,,
JVASP-90728,HoPd,-0.98511,0.0,na,0.0,,,,,
JVASP-98076,Ba4Ti2PtO10,-2.86632,2.012,na,0.0,,,,,
JVASP-98485,HoMnO3,-2.88989,0.0,0.0,0.0,,,,,
JVASP-90484,Sr2Co2O5,-0.22927,0.0,na,1.8131,,,,,
JVASP-64905,BeCo4Tc,0.20612,0.0,0.0,0.3326,,,,,
JVASP-86867,Nb5Ge3,-0.23611,0.0,na,0.2039,,,,,
JVASP-15184,YbGe2Pd2,-0.75142,0.0,na,0.0,,,,,
JVASP-98274,Lu2Si5Ir3,-0.8769,0.0,0.0,0.0,,,,,
JVASP-65586,BaNa2Cd,-0.04987,0.0,0.0,0.1721,,,,,
JVASP-65276,Mg4BeRe,0.83492,0.0,0.0,0.9245,,,,,
JVASP-65391,BaLiRu2,0.678,0.0,na,0.693,,,,,
JVASP-91713,TcCl3,-0.69981,0.082,na,0.0,,,,,
JVASP-97790,TiFeO3,-2.38155,0.0,na,0.0598,,,,,
JVASP-12112,ScBrO,-2.94978,3.222,3.647,0.0,,,,,
JVASP-85681,BaMgH4,-0.49873,2.509,na,0.0,,,,,
JVASP-87932,Sm3Co6Sn5,-0.34434,0.0,na,0.0028,,,,,
JVASP-98610,Sr2B8Ru7,-0.37365,0.0,na,0.0,,,,,
JVASP-65311,BeTlTc4,0.71389,0.0,na,0.7686,,,,,
JVASP-62459,SrAu2O4,-1.27289,1.609,na,0.0,,,,,
JVASP-65159,NaBeFe4,0.49757,0.0,na,0.569,,,,,
JVASP-98347,Ba2CuP2O8,-2.57248,0.344,na,0.0071,,,,,
JVASP-62768,HoBC,-0.11069,0.0,na,0.4353,,,,,
JVASP-85940,Na2PdSe2O8,-1.02547,1.664,na,0.0244,,,,,
JVASP-65548,BaCaPb2,-0.58652,0.0,na,0.036,,,,,
JVASP-3120,TaTl3Se4,-0.61323,2.237,2.665,0.0,,,,,
JVASP-62066,SiB3,-0.04228,1.607,1.946,0.0,,,,,
JVASP-18784,UPt3,-0.7966,0.0,na,0.0,,,,,
JVASP-65657,BaNa2Tc,0.96791,0.0,0.0,0.9977,,,,,
JVASP-91760,NaCd4As3,-0.20609,0.0,na,0.0,,,,,
JVASP-90130,MoPRu,-0.4193,0.0,0.0,0.0357,,,,,
JVASP-98546,NaAlAs2O7,-1.89453,2.745,na,0.0,,,,,
JVASP-87063,LiO,-1.61471,2.147,na,0.0107,,,,,
JVASP-97907,RhC2IO2,-0.55891,1.751,na,0.165,,,,,
JVASP-65201,TiBeBr4,1.02495,0.0,0.0,2.1678,,,,,
JVASP-13960,SrCuO2,-1.94731,0.0,na,0.0,,,,,
JVASP-3852,BiF5,-1.80548,1.589,2.296,0.0,,,,,
JVASP-91669,CeAl2Pt,-0.89292,0.0,na,0.02,,,,,
JVASP-42560,SrTaNO2,-2.65483,1.217,na,0.012,,,,,
JVASP-90364,SmTlPd,-0.67028,0.0,na,0.0,,,,,
JVASP-15437,PrScGe,-0.73453,0.0,na,0.0,,,,,
JVASP-86395,Sc3FeC4,-0.54843,0.0,na,0.0,,,,,
JVASP-86922,TiNi,-0.39997,0.0,na,0.0331,,,,,
JVASP-48326,NaLiMnPCO7,-2.02418,0.624,na,0.0119,,,,,
JVASP-43550,Li2TiNi2O5,-1.95544,0.175,na,0.0743,,,,,
JVASP-12166,HoBrO,-3.11975,3.77,5.328,0.0221,,,,,
JVASP-28368,ZrTe2,-0.91576,0.0,na,0.0131,,,,,
JVASP-88741,BaSc2Te4,-1.48188,0.441,na,0.0,,,,,
JVASP-90599,CaMg3,-0.07331,0.0,na,0.033,,,,,
JVASP-98425,ZrH6O3F4,-2.05566,5.429,na,0.0,,,,,
JVASP-91535,CrCd3Te4,-0.21962,0.0,0.0,0.1219,,,,,
JVASP-15305,YbAl2Ge2,-0.51849,0.0,na,0.0,,,,,
JVASP-97618,Np2S3,-1.78523,0.0,na,0.0,,,,,
JVASP-62921,LiBH4,-0.33742,6.92,na,0.0334,,,,,
JVASP-89324,LiIO3,-0.86839,0.024,0.015,0.2024,,,,,
JVASP-44705,MnSb4O12,-1.40222,1.242,na,0.0383,,,,,
JVASP-97421,CuC4O4,-0.50729,0.0,na,0.372,,,,,
JVASP-65236,Na4BeW,1.19373,0.0,0.0,1.3191,,,,,
JVASP-18696,ErSn2,-0.56715,0.0,0.0,0.0,,,,,
JVASP-97479,K2HgCl4,-1.35296,1.851,na,0.0687,,,,,
JVASP-62285,NaH12AuC4S4O12,-0.71296,2.332,2.458,0.254,,,,,
JVASP-60933,ErNi4Au,-0.4467,0.0,na,0.0,,,,,
JVASP-86519,KNaNdNbO5,-2.82974,3.473,4.412,0.0,,,,,
JVASP-48412,V2O3F,-2.65028,0.0,na,0.0277,,,,,
JVASP-65448,BaCr2W,0.62027,0.0,na,0.7595,,,,,
JVASP-98487,Ag4P2S7,-0.20577,1.619,na,0.0,,,,,
JVASP-65736,BaFeIr2,1.05167,0.0,na,1.0762,,,,,
JVASP-5359,ScCl,-1.50034,0.0,0.0,0.0199,,,,,
JVASP-65512,BaVSi2,-0.073,0.0,0.0,0.4068,,,,,
JVASP-97375,Pr3RuI3,-1.07437,0.0,0.016,0.0,,,,,
JVASP-20088,HgS,0.01627,0.0,0.629,0.0324,,,,,
JVASP-97791,TbCrO4,-2.8395,0.0,na,0.0,,,,,
JVASP-44991,FeSb4O12,-1.31601,0.063,0.0,0.0567,,,,,
JVASP-43793,Li3VF6,-3.07702,0.0,na,0.0433,,,,,
JVASP-48682,Mn3O5F,-1.89101,0.0,na,0.0,,,,,
JVASP-62618,BN,-1.38441,4.46,6.114,0.0044,,,,,
JVASP-86795,Sr2LiCoN2,-0.69147,0.269,na,-0.0,,,,,
JVASP-61788,NdAl3,-0.47928,0.0,na,0.0,,,,,
JVASP-87124,LiGeBO4,-2.22993,4.596,na,0.0061,,,,,
JVASP-47467,TaFeO4,-2.3092,0.0,na,0.0701,,,,,
JVASP-87839,CeAl7Au3,-0.53092,0.0,na,0.0142,,,,,
JVASP-88037,WOF4,-2.70548,2.606,na,0.0432,,,,,
JVASP-91957,Mg6SnB,0.22049,0.0,na,0.3532,,,,,
JVASP-65773,BaGa2Br,-0.43635,0.0,na,0.744,,,,,
JVASP-65392,BaNaMo2,0.62193,0.0,na,0.6487,,,,,
JVASP-98275,In3SnI5,-0.55219,2.026,na,0.0,,,,,
JVASP-65624,Ba2CaNi,0.32732,0.0,0.0,0.4449,,,,,
JVASP-68948,BaFeHg4,0.36327,0.0,na,0.56,,,,,
JVASP-65700,BaSiBi2,-0.07105,0.0,0.0,0.4506,,,,,
JVASP-65587,KBaCr2,1.09649,0.0,0.0,1.0987,,,,,
JVASP-98150,KH3Se2O6,-1.09471,4.311,na,0.0,,,,,
JVASP-90000,Ba2Mn2Se2OF2,-2.22023,0.0,na,0.0245,,,,,
JVASP-98662,YN3O9,-1.01357,3.256,na,0.0,,,,,
JVASP-85386,Ce2Zn4Ru,-0.36352,0.0,na,0.0,,,,,
JVASP-90554,CeCoSb2,-0.62527,0.0,na,0.0,,,,,
JVASP-90256,Co2As,-0.0798,0.0,na,0.1051,,,,,
JVASP-97847,Ce3CuSnS7,-1.56042,0.0,na,0.0013,,,,,
JVASP-65312,BeMo4P,0.76778,0.0,na,1.0519,,,,,
JVASP-86113,KNaB2H8,-0.39508,6.451,9.031,0.0164,,,,,
JVASP-97333,KBaPS4,-1.30344,2.074,na,0.0,,,,,
JVASP-15349,SmSi2Pd2,-0.89018,0.0,0.0,0.0,,,,,
JVASP-90643,CrCuO2,-1.57702,1.052,na,0.0064,,,,,
JVASP-90783,MgTi,0.18806,0.0,0.0,0.1881,,,,,
JVASP-97974,Y4Si2S3O7,-3.09704,2.54,na,0.0,,,,,
JVASP-61527,K4Nb11Al2O20F,-2.5963,0.65,na,0.009,,,,,
JVASP-3549,KBrO3,-0.70727,3.762,4.871,0.0478,,,,,
JVASP-91576,CeTlTe2,-0.84674,0.0,na,0.1754,,,,,
JVASP-86169,Ag2Se,0.07113,0.0,na,0.1361,,,,,
JVASP-85732,Dy3Co,-0.20766,0.0,na,0.0,,,,,
JVASP-90186,Ba2CoCu2S2O2,-1.44372,0.0,na,0.1079,,,,,
JVASP-88639,SrNiGe2,-0.57244,0.0,na,0.0,,,,,
JVASP-42829,Li3Co4O8,-1.57084,0.0,0.0,0.0306,,,,,
JVASP-98077,Li2U3P4O20,-2.72326,2.205,na,0.0,,,,,
JVASP-85880,Mg3Sb2,-0.43096,0.253,na,0.0,,,,,
JVASP-65277,Na4ScBe,0.64632,0.0,0.0,0.6963,,,,,
JVASP-86993,KCuTe,-0.65488,0.705,na,0.0,,,,,
JVASP-86620,Cr2AgBiO8,-1.60568,1.302,1.244,0.0,,,,,
JVASP-90060,TcN2F6,-0.45925,0.0,0.0,1.1268,,,,,
JVASP-92217,ErAgS2,-1.42117,0.657,1.584,0.0046,,,,,
JVASP-90872,SrHg3,-0.28477,0.0,na,0.023,,,,,
JVASP-68949,Ba2ZrBi,0.09395,0.0,na,0.7456,,,,,
JVASP-14591,Sb,0.0,0.0,0.0,0.0,,,,,
JVASP-86693,RbLaSiC4N8,-0.58917,4.461,na,0.0,,,,,
JVASP-47994,FeOF,-1.84092,0.709,na,0.0,,,,,
JVASP-15642,UBC,-0.51442,0.0,0.0,0.0,,,,,
JVASP-97669,Fe3P2H16O16,-1.27653,0.144,na,0.0,,,,,
JVASP-65237,BeInBi4,0.58972,0.0,na,0.5906,,,,,
JVASP-65549,BaBeNb2,1.12627,0.0,na,1.2206,,,,,
JVASP-97376,SICl7,-0.20663,1.657,na,0.0,,,,,
JVASP-90132,USbRu,-0.29793,0.0,na,0.0118,,,,,
JVASP-98791,TeC4Cl2F6,-0.77529,2.788,na,0.4193,,,,,
JVASP-91910,RbMg6W,0.42212,0.0,na,0.4955,,,,,
JVASP-90485,LiSbSe2,-0.67514,0.0,na,0.0174,,,,,
JVASP-65160,BeCo4Se,0.44314,0.0,0.0,0.7609,,,,,
JVASP-65659,BaCa2Y,0.09537,0.0,0.0,0.1055,,,,,
JVASP-14700,YbPt2,-1.16302,0.0,0.0,0.0,,,,,
JVASP-18739,LiPd2Pb,-0.40078,0.0,na,0.0,,,,,
JVASP-62288,Li3As,-0.78007,0.764,na,0.0,,,,,
JVASP-86748,HfAl3,-0.39908,0.0,na,0.0,,,,,
JVASP-97912,BaH2CSNClO,-1.14414,4.908,na,0.0707,,,,,
JVASP-98547,Tl2Cr3O12,-1.49503,1.631,na,0.0,,,,,
JVASP-61278,AsF5,-2.02085,4.53,6.443,0.0004,,,,,
JVASP-62082,Ca5Au3,-0.78027,0.0,na,0.0,,,,,
JVASP-65737,BaZn4Br,-0.31894,0.0,na,0.3988,,,,,
JVASP-98220,Fe12N5,-0.15731,0.0,na,0.0202,,,,,
JVASP-4741,LuPb2,-0.13476,0.0,0.0,0.1249,,,,,
JVASP-91808,KAs,-0.41121,0.0,0.0,0.1221,,,,,
JVASP-88220,S,0.24425,0.0,na,0.0,,,,,
JVASP-91861,Fe3N,-0.14012,0.0,0.0,0.0115,,,,,
JVASP-85305,TiGeTe6,-0.29204,0.337,0.457,0.0087,,,,,
JVASP-85484,AsC3N3,0.64862,4.578,na,0.6566,,,,,
JVASP-68950,BaRh2Br,0.13872,0.0,na,1.0798,,,,,
JVASP-87261,K2NiN4O12,-0.74332,1.467,na,0.0066,,,,,
JVASP-91763,EuAu,-0.92198,0.0,na,0.0,,,,,
JVASP-46525,ZnNi2O4,-1.13234,0.0,0.0,0.0117,,,,,
JVASP-88884,Li5VP2O9,-2.47728,0.003,na,0.0,,,,,
JVASP-97334,NbCuO3,-2.04292,1.045,na,0.0166,,,,,
JVASP-97619,K3FeO4,-1.67675,0.0,na,0.0,,,,,
JVASP-43021,MnSbO4,-1.53739,0.0,0.0,0.1156,,,,,
JVASP-86056,ScRu2,-0.40857,0.0,na,0.0,,,,,
JVASP-91624,CoAgO2,-0.28661,0.0,na,0.634,,,,,
JVASP-65701,Ba2CrSb,-0.1626,0.0,0.0,0.5581,,,,,
JVASP-89073,Yb2InGe2,-0.6503,0.0,na,0.0,,,,,
JVASP-28399,WS2,-0.85627,0.945,1.763,0.1394,,,,,
JVASP-86291,PtN2,0.38004,1.102,na,0.3904,,,,,
JVASP-69069,Ba2SrSi,0.00856,0.0,na,0.3313,,,,,
JVASP-18949,TbCd,-0.34543,0.0,0.0,0.0,,,,,
JVASP-98223,Hg2PCl2,-0.33163,1.461,na,0.0234,,,,,
JVASP-15185,SrFe2P2,-0.89605,0.0,0.0,0.0,,,,,
JVASP-98349,NaSn2As2,-0.29385,0.0,0.0,0.0,,,,,
JVASP-69033,KBaTl2,-0.26533,0.0,na,0.0606,,,,,
JVASP-65660,Ba2YCu,0.41348,0.0,0.0,0.5756,,,,,
JVASP-97422,SiO2,-2.87223,5.63,na,0.029,,,,,
JVASP-98278,KW3Cl9,-1.0257,0.079,na,0.0688,,,,,
JVASP-89325,LiGaAs2O7,-1.59057,2.821,na,0.0063,,,,,
JVASP-90001,CoCl2O6,-0.00826,0.0,na,0.3526,,,,,
JVASP-90366,PrCdPd,-0.69981,0.0,na,0.0,,,,,
JVASP-87064,CaB2Rh2,-0.63967,0.0,na,0.0,,,,,
JVASP-50703,AgHg,0.22138,0.0,0.0,0.2214,,,,,
JVASP-62293,LaAl2,-0.52751,0.0,na,0.0,,,,,
JVASP-69109,BaZr4Hg,0.46021,0.0,na,0.632,,,,,
JVASP-87934,Sc2PbS4,-1.68108,1.628,na,0.0,,,,,
JVASP-85599,LaCO3F,-2.8684,4.921,na,0.0,,,,,
JVASP-3855,RhCl3,-0.66173,1.481,1.666,0.0,,,,,
JVASP-335,TiTe2,-0.71943,0.0,0.0,0.009,,,,,
JVASP-90259,Tb6FeBi2,-0.44536,0.0,na,0.0047,,,,,
JVASP-91958,Mg6VW,0.31478,0.0,na,0.3844,,,,,
JVASP-88406,V2PO5,-2.30678,0.0,na,0.0411,,,,,
JVASP-65588,Ba2ScCr,0.70429,0.0,0.0,0.7043,,,,,
JVASP-65513,BaTcPd2,0.35668,0.0,na,0.8436,,,,,
JVASP-65278,Ca4BeCr,0.9772,0.0,0.0,1.0407,,,,,
JVASP-19885,InRh,-0.36758,0.0,0.0,0.0,,,,,
JVASP-65449,BaScNi2,0.06152,0.0,na,0.4861,,,,,
JVASP-65395,BaCr2Te,0.50846,0.0,0.0,1.4622,,,,,
JVASP-90828,ErCoGe2,-0.60943,0.0,na,0.0115,,,,,
JVASP-86226,Ca3B6Rh8,-0.64028,0.0,na,0.0,,,,,
JVASP-86520,Li3Ti4O8,-2.8479,0.0,na,0.1179,,,,,
JVASP-85882,CaSi2,-0.42706,0.0,na,0.0,,,,,
JVASP-65626,BaSbBr2,-1.04164,0.0,na,0.7246,,,,,
JVASP-61792,Sc6Al16Os7,-0.63629,0.0,na,0.0075,,,,,
JVASP-88640,TmAl3B4O12,-3.07753,5.829,na,0.0,,,,,
JVASP-62770,Ca3Ni7B2,-0.40297,0.0,na,0.0,,,,,
JVASP-85943,Bi2PdO4,-1.05605,0.0,na,0.0944,,,,,
JVASP-18578,Sr2AuN,-0.82599,0.034,na,0.0,,,,,
JVASP-60941,TeAsHO5,-1.10699,3.165,4.833,0.0,,,,,
JVASP-69034,BaZr2Ir,0.38877,0.0,na,0.9541,,,,,
JVASP-65776,BaTiTe2,-0.77445,0.0,0.0,0.5306,,,,,
JVASP-68994,BaLiTl2,-0.21225,0.0,na,0.1696,,,,,
JVASP-89921,TeN2O6,-0.04077,1.027,1.811,0.4545,,,,,
JVASP-90187,V2CoO6,-2.09697,0.025,na,0.0133,,,,,
JVASP-88039,Ba2MnO3,-2.36431,0.524,na,0.0727,,,,,
JVASP-90555,LaNiPO,-2.08993,0.0,na,0.0,,,,,
JVASP-15134,TbNiC2,-0.41154,0.0,0.0,0.0,,,,,
JVASP-69152,BaNa2Mg,0.06659,0.0,na,0.1484,,,,,
JVASP-61532,NdSnAu,-0.79392,0.0,na,0.0605,,,,,
JVASP-48117,Li2Fe3TeO8,-1.51099,0.0,0.0,0.1038,,,,,
JVASP-86869,EuCl3,-2.39603,4.314,5.621,0.0,,,,,
JVASP-86459,SrRuO3,-2.03441,0.0,0.0,0.0,,,,,
JVASP-65161,BeCd4Sn,0.44614,0.0,na,0.4528,,,,,
JVASP-86994,KZnSb,-0.46783,0.39,na,0.0,,,,,
JVASP-65702,K2BaPb,-0.0296,0.0,0.0,0.2984,,,,,
JVASP-97977,RbBSe3,-0.59501,1.465,na,0.0,,,,,
JVASP-62924,Al5BO9,-3.19087,5.017,na,0.004,,,,,
JVASP-97483,Hf6Si7Ni16,-0.73638,0.0,na,0.0,,,,,
JVASP-50868,PrTiO3,-3.38296,0.0,0.0,0.0,,,,,
JVASP-90061,PrAlPd,-0.81681,0.0,na,0.0,,,,,
JVASP-3552,PbClF,-1.92451,3.816,5.023,0.0149,,,,,
JVASP-85734,Nd2InRh2,-0.71209,0.0,na,0.0202,,,,,
JVASP-86924,ZrTe5,-0.48481,0.014,na,0.0,,,,,
JVASP-90873,CaGa2Ni,-0.54311,0.0,na,0.0,,,,,
JVASP-88743,Tb6Al3Si,-0.42073,0.0,na,0.0323,,,,,
JVASP-98611,GaFeO3,-1.64403,0.032,na,0.0816,,,,,
JVASP-97719,CaBi2B2O7,-2.28947,3.148,na,0.0,,,,,
JVASP-65397,BaVSi2,-0.07301,0.0,na,0.4068,,,,,
JVASP-43290,Li2Ni3SnO8,-1.39829,0.0,na,0.0517,,,,,
JVASP-68951,BaCrCl2,-0.99871,0.0,0.0,1.0233,,,,,
JVASP-65202,BeCdHg,0.48144,0.0,na,0.4847,,,,,
JVASP-22673,BN,-1.3844,4.469,5.988,0.0044,,,,,
JVASP-91670,PbSe,-0.59552,0.76,1.165,0.0,,,,,
JVASP-65516,BaSc2Re,0.08237,0.0,0.0,0.2257,,,,,
JVASP-90133,TiPOs,-0.79765,0.0,na,0.0207,,,,,
JVASP-92167,CuPN2,-0.21264,2.081,2.197,0.0,,,,,
JVASP-90729,UFeAs2,-0.52848,0.0,na,0.0,,,,,
JVASP-97848,Ti3Ni3O,-1.11456,0.0,na,0.0219,,,,,
JVASP-7066,Al2S3,-1.22286,3.131,na,0.0095,,,,,
JVASP-65550,Ba2CrIn,0.18497,0.0,0.0,0.4902,,,,,
JVASP-65165,HfBeBi4,0.93896,0.0,na,1.051,,,,,
JVASP-69035,BaZr4Cu,0.65095,0.0,0.0,0.7312,,,,,
JVASP-98350,Ba2NdNbCu2O8,-2.53007,0.0,na,0.0,,,,,
JVASP-62101,Hf6Al16Co7,-0.55091,0.0,na,0.0085,,,,,
JVASP-28400,Te2W,0.04594,1.285,1.351,0.2315,,,,,
JVASP-16087,W,0.4743,0.0,0.0,0.0,,,,,
JVASP-97335,Ba3Sn2As4,-0.89733,0.726,na,0.0,,,,,
JVASP-18870,K2Hg7,-0.05379,0.0,na,0.0483,,,,,
JVASP-50008,ReO3,-1.72088,0.0,na,0.0107,,,,,
JVASP-65738,Ba2YNb,0.84747,0.0,0.0,0.8475,,,,,
JVASP-85820,NiS2,0.04979,0.0,na,0.4089,,,,,
JVASP-62928,LaBRh3,-0.70377,0.0,na,0.0,,,,,
JVASP-62304,ErAlNi,-0.67496,0.0,na,0.0,,,,,
JVASP-69191,BaCd2Se,-0.77835,0.0,na,0.3226,,,,,
JVASP-14848,HoCd,-0.34236,0.0,na,0.0,,,,,
JVASP-97797,Nd2InGe2,-0.77295,0.0,0.0,0.0,,,,,
JVASP-98426,KB5H8O12,-1.85632,5.693,na,0.0,,,,,
JVASP-65551,Ba2MnBi,-0.12446,0.0,na,0.5271,,,,,
JVASP-69070,BaBeV2,1.32003,0.0,0.0,1.3959,,,,,
JVASP-68952,BaCa2Ga,-0.23538,0.0,na,0.0398,,,,,
JVASP-68995,BaIn2Te,-0.45637,0.0,na,0.5,,,,,
JVASP-3270,K3Sb,-0.50346,0.478,1.637,0.0,,,,,
JVASP-87843,Fe3Pt,0.07738,0.0,na,0.1783,,,,,
JVASP-91911,RbMg6Mo,0.36065,0.0,na,0.3644,,,,,
JVASP-86623,MnVBiO5,-1.96905,0.678,na,0.0279,,,,,
JVASP-65203,Li4BeRu,0.34555,0.0,na,0.4361,,,,,
JVASP-601,Te2Rh,-0.36728,0.0,0.0,0.0106,,,,,
JVASP-60966,RbAuN12,0.46759,1.477,1.624,0.5496,,,,,
JVASP-15390,BMo2C,-0.26008,0.0,na,0.051,,,,,
JVASP-91862,MnCu2SnS4,-0.44748,0.0,na,0.0121,,,,,
JVASP-97673,CoP3NO9,-1.42121,1.24,na,0.3089,,,,,
JVASP-15262,NdSi2Ni,-0.78335,0.0,na,0.0,,,,,
JVASP-65589,BaGeBi2,-0.24963,0.0,0.0,0.2708,,,,,
JVASP-61544,Zr6Al16Pt7,-0.91708,0.0,na,0.0,,,,,
JVASP-85306,Ce4C2Br5,-1.39741,0.0,na,0.0,,,,,
JVASP-97978,YbInRh,-0.72677,0.0,na,0.0,,,,,
JVASP-65238,BeVGa4,0.45765,0.0,0.0,0.5822,,,,,
JVASP-69036,BaMoOs2,1.41822,0.0,na,1.4192,,,,,
JVASP-98665,Na2MgInF7,-3.09277,4.949,na,0.0,,,,,
JVASP-97620,Np5Ge4,-0.2451,0.0,na,0.0557,,,,,
JVASP-85682,HPbBrO,-1.11721,3.233,4.282,0.0,,,,,
JVASP-86797,PdCl2,-0.44889,0.658,0.622,0.0342,,,,,
JVASP-91714,MgMnO2,-2.00551,0.0,na,0.25,,,,,
JVASP-65661,BaNiRu2,1.0753,0.0,0.0,1.0753,,,,,
JVASP-62464,CaAs2O6,-1.87735,3.479,4.815,0.0,,,,,
JVASP-65777,Ba2MnSn,-0.01769,0.0,0.0,0.4964,,,,,
JVASP-65279,ZrBeIn,0.03035,0.0,na,0.3216,,,,,
JVASP-21555,DyPS4,-1.12115,2.278,na,0.0,,,,,
JVASP-90372,Rb2CrF6,-2.89671,0.0,na,0.0014,,,,,
JVASP-89078,EuB2Ir2,-0.75147,0.0,na,0.0,,,,,
JVASP-86058,EuSn,-0.79209,0.0,na,1.862,,,,,
JVASP-69071,BaInBr2,-1.30277,0.0,na,0.4648,,,,,
JVASP-69195,BaZr4Ti,0.62411,0.0,0.0,0.6241,,,,,
JVASP-91625,U3Si,-0.22277,0.0,na,0.0535,,,,,
JVASP-65739,BaLiBi2,-0.34616,0.0,na,0.3687,,,,,
JVASP-65313,HfBeCd,0.07022,0.0,0.0,0.2345,,,,,
JVASP-65517,BaZn2Ru,0.08922,0.0,na,0.2991,,,,,
JVASP-68996,BaSi2Ir,0.5114,0.0,na,1.1569,,,,,
JVASP-69110,BaSrCa2,0.02096,0.0,0.0,0.0477,,,,,
JVASP-65703,Ba2NbTe,0.09624,0.0,0.0,1.05,,,,,
JVASP-97377,Rh3S4,-0.55941,0.0,0.0,0.0,,,,,
JVASP-88221,P4S3I2,-0.14114,1.608,na,0.0,,,,,
JVASP-97551,Na2B4H20O17,-1.46318,5.344,na,0.0,,,,,
JVASP-65627,BaPtBr2,-0.85551,0.0,0.0,0.9107,,,,,
JVASP-14701,UP2,-0.85236,0.0,0.0,0.0278,,,,,
JVASP-86292,SmZnSn,-0.65457,0.0,na,0.0,,,,,
JVASP-65204,TiBeSn4,0.77594,0.0,na,0.9324,,,,,
JVASP-65454,BaZnPt2,-0.42276,0.0,0.0,0.2865,,,,,
JVASP-88642,Ba4Zr3S10,-2.02322,0.504,na,0.0278,,,,,
JVASP-97488,LaGaO3,-2.93911,3.461,na,0.0,,,,,
JVASP-15776,CeAl2Pt3,-1.04858,0.0,na,0.0329,,,,,