jid,formula,formation_energy_per_atom,optb88vdw_bandgap,mbj_bandgap,ehull,spacegroup_number,natoms,volume,bulk_modulus_kv,shear_modulus_gv
JVASP-48402,MnOF,-2.07754,0.03,na,0.0,,,,,
JVASP-98589,V6H4O13,-2.05103,0.0,na,0.097,,,,,
JVASP-90459,RbMg6C,0.30484,0.0,na,0.309,,,,,
JVASP-60886,Mg3Mn2Al18,-0.11091,0.0,na,0.0192,,,,,
JVASP-91572,Pd3N,0.28582,0.0,na,0.2897,,,,,
JVASP-48320,Mn3O2F5,-2.1734,0.395,na,0.0,,,,,
JVASP-90355,NaW2O6,-2.425,0.0,na,0.0,,,,,
JVASP-42450,LiV2O3F3,-2.73278,0.0,0.0,0.1007,,,,,
JVASP-62883,PrBRh3,-0.67477,0.0,na,0.0005,,,,,
JVASP-97607,Mn2GeO4,-1.56782,0.004,na,0.0756,,,,,
JVASP-107761,FeNiS2,-0.35285,0.0,na,0.1714,,,,,
JVASP-65297,BeZnGe4,0.69154,0.0,na,0.6915,,,,,
JVASP-86914,SrCuO2,-1.93755,0.0,na,0.0098,,,,,
JVASP-62733,BPb3O4F,-1.85946,2.387,na,0.0,,,,,
JVASP-15834,BiS2,-0.07318,0.0,0.0,0.2964,,,,,
JVASP-98320,LiH5SN2O4,-0.96509,5.54,na,0.0935,,,,,
JVASP-32226,MnH4C2O6,-1.14188,1.061,na,0.0426,,,,,
JVASP-85675,Na3MgP2HO8,-2.37618,5.301,7.993,0.0,,,,,
JVASP-22563,Na2CN2,-0.57951,3.375,5.771,0.0142,,,,,
JVASP-97533,H2SeNO4,-0.34744,0.789,na,0.3468,,,,,
JVASP-65187,Be2ZnGe,0.42034,0.0,na,0.4203,,,,,
JVASP-98876,AgSbC6N4O2F6,-0.6848,1.498,na,0.3481,,,,,
JVASP-65009,BeNbBi4,1.18361,0.0,0.0,1.2465,,,,,
JVASP-97699,ZrBi2,-0.30725,0.0,na,0.0,,,,,
JVASP-3402,Sm3InN,-1.00047,0.0,0.0,0.0,,,,,
JVASP-42735,LiMnSiO4,-2.39521,0.389,na,0.0328,,,,,
JVASP-97409,RbTaP2O8,-2.58939,3.415,na,0.0,,,,,
JVASP-14843,As,0.02549,0.077,na,0.0,,,,,
JVASP-65098,BeIn4Si,0.78685,0.0,na,0.7912,,,,,
JVASP-20086,Mo3Ir,-0.10051,0.0,0.0,0.0756,,,,,
JVASP-44528,Li2Co3TeO8,-1.40248,0.0,na,0.0681,,,,,
JVASP-87117,Ba3Er2Cu2PtO10,-2.3795,0.381,na,0.0,,,,,
JVASP-88729,CaH8Cl2O4,-1.32466,5.36,na,0.0,,,,,
JVASP-65363,BaCa2W,0.64223,0.0,na,0.7916,,,,,
JVASP-85378,Eu2BrO2,-3.04458,0.0,na,0.0608,,,,,
JVASP-88181,Pr4Te3N2,-1.58949,0.806,na,0.0,,,,,
JVASP-89911,UAlIr,-0.71178,0.0,na,0.0361,,,,,
JVASP-5314,UCl5,-1.65304,0.376,na,0.0,,,,,
JVASP-98779,BiS4N3Cl4,-0.16068,2.146,na,0.2036,,,,,
JVASP-65148,BeCrP,-0.20434,0.0,0.0,0.1471,,,,,
JVASP-42324,Ca2FeP2H8O12,-1.86209,0.285,na,0.0,,,,,
JVASP-98027,LiBPt3,-0.51712,0.0,na,0.0,,,,,
JVASP-90548,NdNiSb2,-0.72931,0.0,na,0.006,,,,,
JVASP-65134,BeTlGa4,0.42648,0.0,na,0.4265,,,,,
JVASP-61474,DyNiB4,-0.59763,0.0,na,0.0059,,,,,
JVASP-91899,Mg7Nb,0.14709,0.0,na,0.1471,,,,,
JVASP-62220,Zr6Al16Co7,-0.58249,0.0,na,0.0,,,,,
JVASP-98257,LiBeH8CNOF4,-1.49382,5.947,na,0.007,,,,,
JVASP-92212,Zr3Co,-0.25245,0.0,na,0.0,,,,,
JVASP-97459,KVSO6,-2.03,1.665,na,0.0,,,,,
JVASP-98409,H8PtO6,-0.89655,2.074,na,0.0271,,,,,
JVASP-21524,K4Sn3Se8,-0.83408,1.377,na,0.0,,,,,
JVASP-98474,LiLa4NiO8,-3.1197,0.623,na,0.0,,,,,
JVASP-62407,Er2SnAu2,-0.89117,0.0,na,0.0126,,,,,
JVASP-98206,Ca2MnAlO5,-2.93117,0.0,na,0.0,,,,,
JVASP-85573,VO2,-2.36793,0.1,0.093,0.1918,,,,,
JVASP-97314,LiScP2O7,-2.76604,4.909,na,0.0,,,,,
JVASP-90180,PrHgPd,-0.63249,0.0,na,0.0,,,,,
JVASP-65053,BeNb4Zn,0.61122,0.0,na,0.7108,,,,,
JVASP-62579,CaB2H2,0.04411,0.0,na,0.5658,,,,,
JVASP-91950,Mg3CuO4,-2.4201,0.0,na,0.0388,,,,,
JVASP-23439,TeO3,-0.84544,1.376,2.187,0.0402,,,,,
JVASP-15075,HfN,-1.92482,0.0,na,0.0,,,,,
JVASP-88025,Ti4CdCu3O12,-2.24745,0.0,na,0.0548,,,,,
JVASP-28361,C3N,0.38122,0.0,na,0.3875,,,,,
JVASP-86741,RbAuI3,-0.69469,0.612,na,0.0,,,,,
JVASP-64974,Be2RuSe,0.21076,0.0,na,0.8108,,,,,
JVASP-36936,CuAgF3,-1.41199,0.0,0.0,0.0,,,,,
JVASP-97658,Pb2O3,-1.11105,0.922,na,0.0005,,,,,
JVASP-97887,K4V5CuClO15,-2.33311,0.023,na,0.0,,,,,
JVASP-98531,SiO2,-2.86895,5.692,na,0.0323,,,,,
JVASP-61218,AlAu2,-0.33509,0.0,na,0.0,,,,,
JVASP-14961,YSi2,-0.48786,0.0,na,0.0813,,,,,
JVASP-65265,BeVPb4,1.20581,0.0,0.0,1.2564,,,,,
JVASP-64936,HfBeCo4,-0.16721,0.0,0.0,0.1497,,,,,
JVASP-91756,PrPt,-1.19361,0.0,na,0.0,,,,,
JVASP-90246,SmCr2B6,-0.55212,0.0,na,0.0,,,,,
JVASP-98067,Ag2NClO3,-0.33924,1.596,na,0.0,,,,,
JVASP-97363,Ti3Bi4O12,-2.31637,2.466,na,0.0,,,,,
JVASP-97832,Ba3B2N4,-1.21717,2.514,na,0.0,,,,,
JVASP-64895,Be2FeMo,-0.10756,0.0,0.0,0.1159,,,,,
JVASP-90822,Tl3Ir,0.52625,0.0,na,0.5262,,,,,
JVASP-90722,PbS,-0.52565,0.663,na,0.1303,,,,,
JVASP-86041,BaAl2Si2,-0.32351,0.0,na,0.0667,,,,,
JVASP-18545,LaB2Ru3,-0.40194,0.0,na,0.0,,,,,
JVASP-43539,Na3CoO3,-1.41708,0.398,na,0.0573,,,,,
JVASP-91531,LiAuF6,-1.5528,1.982,na,0.0002,,,,,
JVASP-89307,EuClO,-3.29812,4.952,6.146,0.0,,,,,
JVASP-97701,Na4CoO4,-1.49288,0.465,na,0.0,,,,,
JVASP-86860,TeI,-0.06974,0.732,1.334,0.0043,,,,,
JVASP-62003,DyAlAu,-0.83907,0.0,0.0,0.0,,,,,
JVASP-65189,BeSiCl4,0.96851,0.0,na,2.1972,,,,,
JVASP-91619,SmFeSb2,-0.51651,0.0,na,0.0997,,,,,
JVASP-62885,B5Mo2,0.13284,0.0,na,0.4822,,,,,
JVASP-42817,Li8CoO5F,-2.00526,0.0,0.015,0.1256,,,,,
JVASP-65149,BeBi4Mo,1.41589,0.0,na,1.4895,,,,,
JVASP-65099,Li4BeRh,0.14718,0.0,na,0.3475,,,,,
JVASP-97779,LaCdB5O10,-2.68372,4.512,na,0.0,,,,,
JVASP-54353,RuN2,0.22177,0.0,0.0,0.2321,,,,,
JVASP-65298,K4ZrBe,1.17834,0.0,na,1.2321,,,,,
JVASP-98475,CaMnSi2O6,-2.785,1.814,na,0.0,,,,,
JVASP-65135,BeMo4Rh,0.48493,0.0,na,0.6846,,,,,
JVASP-16045,Pr3GaC,1.18099,0.0,0.0,1.5304,,,,,
JVASP-98639,LiBH2OF4,-2.40033,7.133,na,0.0,,,,,
JVASP-97410,CuSeO3,-0.74326,0.039,na,0.017,,,,,
JVASP-98028,Na2Te2O5,-1.48907,2.813,na,0.0,,,,,
JVASP-98126,La2Ga12Pd,-0.4843,0.0,na,0.0,,,,,
JVASP-15221,NbNi2Sn,-0.18503,0.0,0.0,0.0603,,,,,
JVASP-65055,BeIr4Pd,0.60659,0.0,na,0.8203,,,,,
JVASP-61481,NdAlCu,-0.42282,0.0,na,0.0001,,,,,
JVASP-65367,BaCu2Ir,0.25682,0.0,na,0.321,,,,,
JVASP-90055,SeN2Cl6,1.14123,0.0,na,1.1816,,,,,
JVASP-86109,Th2Ga,-0.37321,0.0,0.0,0.0273,,,,,
JVASP-98780,S,-0.01574,2.024,na,0.0,,,,,
JVASP-90593,MgGa,0.07788,0.0,na,0.2169,,,,,
JVASP-65222,BeTeIr4,0.6963,0.0,0.0,0.8656,,,,,
JVASP-60888,Ho2Au,-0.68748,0.0,na,0.0,,,,,
JVASP-3840,InBrO,-1.3267,2.06,3.732,0.0121,,,,,
JVASP-42552,Mn6O7F5,-2.03362,0.0,0.0,0.0,,,,,
JVASP-97461,MnI2O6,-0.69595,1.115,na,0.1113,,,,,
JVASP-98412,RbAuC2S2N2,-0.15732,2.47,na,0.1704,,,,,
JVASP-98207,LaCoO3,-2.50307,0.0,na,0.0004,,,,,
JVASP-98259,NbSe2SN2ClF6,-1.51138,2.073,na,0.086,,,,,
JVASP-98879,Tb2Sb5,-0.67237,0.0,na,0.0078,,,,,
JVASP-97536,Ho2H4CO7,-2.19392,5.064,na,0.0,,,,,
JVASP-48818,V6O11F,-2.60644,0.0,na,0.0084,,,,,
JVASP-64937,LiBeCo4,0.22002,0.0,na,0.3313,,,,,
JVASP-65266,SrBeSn4,0.17147,0.0,na,0.4858,,,,,
JVASP-49786,Ba3GeO5,-2.69064,2.937,na,0.0,,,,,
JVASP-86453,CuRh2O4,-0.84187,0.0,0.0,0.0331,,,,,
JVASP-97315,La3Nb2N6,-1.51407,0.0,na,0.0,,,,,
JVASP-88595,Dy3S3N,-2.16663,1.424,na,0.0,,,,,
JVASP-89987,ErSnPd,-0.92704,0.0,na,0.0,,,,,
JVASP-85814,VO2,-2.48592,0.0,na,0.0738,,,,,
JVASP-18657,Ti2Cd,-0.07398,0.0,0.0,0.0,,,,,
JVASP-86390,Nd3Ni13B2,-0.39868,0.0,na,0.0087,,,,,
JVASP-14999,NbS2,-1.032,0.0,0.94,0.0908,,,,,
JVASP-42240,LiMnSiO4,-2.3534,0.0,0.0,0.0746,,,,,
JVASP-64897,KBeHg4,0.46321,0.0,na,0.5398,,,,,
JVASP-62413,AuCS2Cl3,-0.08912,1.838,2.285,0.0649,,,,,
JVASP-62221,Na4BeAlSi4ClO12,-2.76184,4.766,7.651,0.0,,,,,
JVASP-585,NbSe2,-0.85284,0.0,na,0.0146,,,,,
JVASP-98590,Ca2MnGaO5,-2.58258,0.0,na,0.0002,,,,,
JVASP-107762,FeCoB,-0.2573,0.0,na,0.0071,,,,,
JVASP-22589,KVF3,-2.55884,0.0,0.0,0.2635,,,,,
JVASP-90866,SrF3,-3.06887,0.338,na,0.0515,,,,,
JVASP-65300,Ca4BePt,0.62833,0.0,na,1.079,,,,,
JVASP-65190,KBeIn4,0.36102,0.0,na,0.4315,,,,,
JVASP-89055,Ti4MnP6O24,-2.59008,1.596,na,0.0,,,,,
JVASP-65370,BaSc2Cu,0.46167,0.0,na,0.6256,,,,,
JVASP-97834,Sc2Se3O9,-1.91443,3.975,na,0.0,,,,,
JVASP-18738,Li7Pb2,-0.34984,0.0,na,0.0,,,,,
JVASP-97364,Mn2SiP4O14,-2.21719,2.025,na,0.0039,,,,,
JVASP-65223,K4BePd,0.76165,0.0,na,0.9542,,,,,
JVASP-65150,K4BeRh,1.0268,0.0,0.0,1.2322,,,,,
JVASP-61699,YB2Rh3,-0.70847,0.0,na,0.0,,,,,
JVASP-86515,Sr2TiO4,-3.33006,1.953,na,0.0,,,,,
JVASP-87130,MnO,-1.31265,0.0,na,0.1602,,,,,
JVASP-88857,Mg2GeO4,-2.5409,3.582,na,0.0214,,,,,
JVASP-65010,BeVP4,0.81289,0.0,0.0,1.1726,,,,,
JVASP-43770,LiFeF4,-2.50531,1.316,na,0.0694,,,,,
JVASP-65137,Na4BeZn,0.52825,0.0,na,0.5472,,,,,
JVASP-48403,V4O7F5,-2.6119,0.135,2.269,0.029,,,,,
JVASP-5524,SCl2O,-0.57943,3.435,4.818,0.0,,,,,
JVASP-97608,La2NiO4,-2.87919,0.0,na,0.0505,,,,,
JVASP-42739,LiFe2OF5,-2.16746,0.0,na,0.1627,,,,,
JVASP-86987,SrB2Rh2,-0.59651,0.0,na,0.0,,,,,
JVASP-65057,Mg4TiBe,0.6149,0.0,0.0,0.6725,,,,,
JVASP-64975,BeGeS2,0.27489,0.0,0.0,1.0931,,,,,
JVASP-60893,K2NaAlP2,-0.6792,1.712,2.861,0.0,,,,,
JVASP-15675,LuNiBC,-0.64546,0.0,na,0.0,,,,,
JVASP-62894,ErMnB4,-0.68114,0.0,na,0.0037,,,,,
JVASP-90356,Sr2Cu2NiS2O2,-1.5001,0.0,na,0.0756,,,,,
JVASP-97659,LiB13C2,-0.20398,2.747,3.092,0.0,,,,,
JVASP-98532,SiO2,-2.86955,5.497,na,0.0317,,,,,
JVASP-98260,Sr2CoMoO6,-2.46805,0.0,na,0.0325,,,,,
JVASP-88389,NaGaSi2O6,-2.60587,4.523,na,0.0,,,,,
JVASP-85872,AlCu,-0.22357,0.0,na,0.0,,,,,
JVASP-85723,K2MgMo2H4O10,-1.9487,3.42,4.004,0.0436,,,,,
JVASP-97956,BH10C2N5O3,-0.66125,4.519,na,0.0045,,,,,
JVASP-97780,CaAl2O4,-3.33446,4.537,na,0.0,,,,,
JVASP-64938,BeNi4P,0.25588,0.0,na,0.6818,,,,,
JVASP-97892,Tl5Se3,-0.37635,0.0,na,0.0,,,,,
JVASP-98210,CeGeAu,-0.78821,0.0,na,0.0,,,,,
JVASP-65267,BeFeBi4,1.38188,0.0,0.0,1.4494,,,,,
JVASP-86286,HoSiRu2C,-0.60504,0.0,na,0.0,,,,,
JVASP-98641,GaH12N3O3F6,-1.08312,5.361,na,0.2055,,,,,
JVASP-97704,Ba6Mn5O16,-2.53848,0.53,na,0.0,,,,,
JVASP-98413,Fe2C9O9,-0.73898,2.655,na,0.2174,,,,,
JVASP-61252,CdAs2O6,-1.32126,2.121,3.699,0.0,,,,,
JVASP-98880,BaAlH5,-0.43914,2.95,na,0.0,,,,,
JVASP-65426,BaMg2Fe,0.30464,0.0,na,0.3975,,,,,
JVASP-90460,SrHfMg6,0.09814,0.0,na,0.1584,,,,,
JVASP-98029,Nd2NCl3,-2.23925,3.369,na,0.0,,,,,
JVASP-46874,Mn2Cd3O5,-1.21484,0.0,na,0.1618,,,,,
JVASP-97463,CaP2O6,-2.6281,5.571,na,0.0,,,,,
JVASP-62006,LaCo2B2,-0.51651,0.0,0.0,0.0,,,,,
JVASP-91857,MnAs,-0.20563,0.0,na,0.0,,,,,
JVASP-62580,YRe4B4,-0.18359,0.0,na,0.1686,,,,,
JVASP-86791,RbCdAg3C6N6,0.21184,2.527,3.225,0.2792,,,,,
JVASP-88187,Sr2LiInGe2,-0.61642,0.0,na,0.0,,,,,
JVASP-14625,Cr,0.06567,0.0,0.0,0.0,,,,,
JVASP-89914,CuPb2Cl2O4,-0.6194,0.0,na,0.2702,,,,,
JVASP-3186,YZnPO,-2.02163,1.25,na,0.0,,,,,
JVASP-98781,DyP3O9,-2.60457,5.616,na,0.0,,,,,
JVASP-43543,Mn3NiO4,-1.20573,0.0,na,0.2821,,,,,
JVASP-86915,BaCuSn2,-0.49351,0.0,na,0.0,,,,,
JVASP-85676,Rb3MnH5,-0.14795,1.624,na,0.0449,,,,,
JVASP-98324,P2H16N4O7,-0.99868,4.715,na,0.0,,,,,
JVASP-14877,Mg2Ge,0.17212,0.0,na,0.5188,,,,,
JVASP-61484,MnAs2O6,-1.34765,0.522,na,0.0417,,,,,
JVASP-98477,Yb5Si4,-0.5129,0.0,na,0.0205,,,,,
JVASP-87925,Sb2PbO6,-1.51863,2.147,2.94,0.0,,,,,
JVASP-98128,Pr3RuCl3,-1.5234,0.0,na,0.0,,,,,
JVASP-91708,V3Fe,-0.19272,0.0,na,0.0,,,,,
JVASP-86742,DyFe2SiC,-0.57688,0.0,na,0.0,,,,,
JVASP-90639,FeF3,-2.20213,0.224,na,0.0015,,,,,
JVASP-47983,Li2Fe2CoO6,-1.64224,0.0,0.0,0.0553,,,,,
JVASP-90125,VFeAs,-0.28859,0.0,na,0.0266,,,,,
JVASP-86612,KEuSiS4,-1.54616,2.77,3.643,0.0,,,,,
JVASP-62223,Rb2Cd5As4,-0.31516,0.003,na,0.012,,,,,
JVASP-87060,Li3LaP2,-1.1054,0.502,0.98,0.0,,,,,
JVASP-50697,YbAlO3,-3.10156,0.0,na,0.0075,,,,,
JVASP-65011,SrMg4Be,0.31073,0.0,na,0.3989,,,,,
JVASP-65302,BeZnPt4,0.22593,0.0,na,0.5967,,,,,
JVASP-5173,PbI2,-0.66023,2.242,3.133,0.0,,,,,
JVASP-65151,BeNb4W,0.57744,0.0,na,0.7331,,,,,
JVASP-65138,Li4BeSi,0.28055,0.0,na,0.4104,,,,,
JVASP-97412,CdGeBi2O6,-1.49936,1.928,na,0.0,,,,,
JVASP-15433,NdGe2Pd2,-0.80595,0.0,0.0,0.0,,,,,
JVASP-97537,Ce2Ge3O9,-2.48616,0.0,na,0.0457,,,,,
JVASP-107763,Er2AlFe3,-0.26365,0.0,na,0.0004,,,,,
JVASP-14844,Nd,0.0066,0.0,na,0.0,,,,,
JVASP-28362,C3N,1.87227,0.0,na,1.8785,,,,,
JVASP-60895,DyNi4Au,-0.43403,0.0,na,0.0,,,,,
JVASP-65191,YBeIn4,0.30353,0.0,na,0.5935,,,,,
JVASP-91951,KMg3O4,-2.076,0.0,na,0.5152,,,,,
JVASP-42818,Li2MnO2F,-2.28127,0.611,na,0.0,,,,,
JVASP-92214,CeNiGe2,-0.71367,0.0,na,0.0,,,,,
JVASP-65058,BeMoW,0.04326,0.0,na,0.3761,,,,,
JVASP-90056,FeNiP,-0.42692,0.0,na,0.028,,,,,
JVASP-65224,Ca4BeZn,0.70287,0.0,0.0,0.8489,,,,,
JVASP-90181,UInPd,-0.2251,0.0,na,0.0973,,,,,
JVASP-49787,NaTi2O3,-2.66932,0.0,na,0.0301,,,,,
JVASP-91900,BaMg7,0.07257,0.0,na,0.1593,,,,,
JVASP-64898,MnBe2Nb,0.10296,0.0,0.0,0.337,,,,,
JVASP-42325,Fe4O3F5,-1.78098,0.0,na,0.1093,,,,,
JVASP-90824,ZrCu,-0.16044,0.0,na,0.0,,,,,
JVASP-90549,ErNiGe2,-0.66358,0.0,na,0.0,,,,,
JVASP-20087,GaCo,-0.24928,0.0,na,0.0,,,,,
JVASP-15479,NdGe2Rh2,-0.86911,0.0,na,0.0,,,,,
JVASP-19816,BaPt2,-0.82864,0.0,na,0.0,,,,,
JVASP-14587,Hf,0.17424,0.0,0.0,0.0,,,,,
JVASP-15529,SmGe2Rh2,-0.86943,0.0,na,0.0,,,,,
JVASP-98594,Dy7InCo4Ge12,-0.70305,0.0,na,0.0,,,,,
JVASP-91620,SbPt3,-0.15739,0.0,na,0.0477,,,,,
JVASP-91664,VIr,-0.52535,0.0,na,0.023,,,,,
JVASP-87118,CaSiPd,-0.80239,0.0,na,0.0,,,,,
JVASP-97893,Yb2C3N6,-0.47371,0.0,na,0.0,,,,,
JVASP-65373,BaSc2Ta,0.46709,0.0,0.0,0.4671,,,,,
JVASP-61703,Na4BeAlSi4ClO12,-2.76184,4.766,7.651,0.0,,,,,
JVASP-22590,HgO2,0.07369,0.318,1.889,0.241,,,,,
JVASP-98030,Mo3S3Br,-0.7658,0.0,na,0.0111,,,,,
JVASP-86047,DyInRh,-0.77622,0.0,na,0.0,,,,,
JVASP-98211,La2InRh2,-0.81087,0.0,na,0.0,,,,,
JVASP-98068,TiH8C4NO10,-1.17147,0.0,na,0.0664,,,,,
JVASP-97835,NaP5,-0.22118,1.298,1.816,0.0,,,,,
JVASP-97317,Th7Rh3,-0.67972,0.0,na,0.0,,,,,
JVASP-92163,Ca3Zn,-0.05483,0.0,0.0,0.1267,,,,,
JVASP-62020,HfInAu2,-0.3995,0.0,na,0.053,,,,,
JVASP-62895,Na3Sc2B3O9,-2.82696,3.678,5.229,0.0139,,,,,
JVASP-65428,BaNbBi2,0.30427,0.0,na,0.8247,,,,,
JVASP-12111,CrPS4,-0.47532,0.651,na,0.0,,,,,
JVASP-97365,BaP2O6,-2.63942,5.382,na,0.0,,,,,
JVASP-85478,Cu2S,-0.16862,0.59,na,0.0068,,,,,
JVASP-97660,Ba14Na14CaN6,-0.36605,0.0,na,0.0,,,,,
JVASP-43772,Li3FeF6,-2.69798,0.041,na,0.123,,,,,
JVASP-48666,Li2VF6,-3.04234,0.173,3.904,0.062,,,,,
JVASP-12164,YBr3,-1.96405,3.59,4.319,0.0,,,,,
JVASP-64976,MgBe2Pb,0.61093,0.0,na,0.6575,,,,,
JVASP-86861,TaNi3,-0.37715,0.0,na,0.0015,,,,,
JVASP-90723,InMoS2,-0.65736,0.0,na,0.0652,,,,,
JVASP-48822,LiMn2OF3,-2.25291,0.78,na,0.0,,,,,
JVASP-42241,Li3Mn2Cr2O8,-2.0913,0.0,0.0,0.0525,,,,,
JVASP-98882,NiBiO3,-1.14955,0.0,na,0.001,,,,,
JVASP-97706,Tl2SnO3,-1.28386,1.187,na,0.0,,,,,
JVASP-64939,BeTlRe4,0.9042,0.0,0.0,0.9938,,,,,
JVASP-97609,Sc3Co,-0.27598,0.0,na,0.0,,,,,
JVASP-90594,MgGa3,-0.05927,0.0,na,0.0389,,,,,
JVASP-65268,BeCuSi,0.23621,0.0,na,0.3106,,,,,
JVASP-62584,LaBRh3,-0.70375,0.0,na,0.0,,,,,
JVASP-98480,BaFe2S3,-1.12686,0.0,na,0.019,,,,,
JVASP-86689,YRu2,-0.35707,0.0,na,0.0,,,,,
JVASP-97781,La2CuSnO6,-2.59507,0.0,na,0.0,,,,,
JVASP-89988,TeN2Cl6,0.89474,0.0,na,0.9442,,,,,
JVASP-88621,BH3O3,-1.56931,6.341,na,0.0,,,,,
JVASP-97957,H4CSN2,-0.20088,3.232,na,0.0,,,,,
JVASP-87240,RbMgF3,-2.86543,2.312,na,0.6666,,,,,
JVASP-86219,K2OsNCl5,-1.03168,1.722,na,0.1337,,,,,
JVASP-90779,MgTi3,0.14318,0.0,na,0.1432,,,,,
JVASP-98782,Ba6Nb2IrCl2O12,-2.73209,0.0,na,0.0066,,,,,
JVASP-97465,Hg2CN2Cl2,0.06365,1.559,na,0.2971,,,,,
JVASP-42740,Li3CrO4,-2.2359,0.0,0.0,0.0,,,,,
JVASP-62735,CaBHO3,-2.56391,5.298,7.59,0.0,,,,,
JVASP-65503,BaMgNi2,0.06646,0.0,na,0.2766,,,,,
JVASP-90470,ZrCl3,-1.81278,0.316,na,0.0091,,,,,
JVASP-85874,TeO3,-0.8856,1.252,na,0.0,,,,,
JVASP-3537,TeRhCl,-0.52915,0.723,0.896,0.0,,,,,
JVASP-85301,KC4N3,0.06501,3.752,4.58,0.2632,,,,,
JVASP-86392,UGeTe,-0.52188,0.0,na,0.0001,,,,,
JVASP-3843,KTlO,-1.12445,1.5,2.582,0.0,,,,,
JVASP-65225,Sr4BeV,1.35699,0.0,0.0,1.4076,,,,,
JVASP-4406,ScSi2,-0.31425,0.0,0.0,0.2323,,,,,
JVASP-98212,CeMn2Ge2,-0.33627,0.0,na,0.0088,,,,,
JVASP-61492,Ca3Au,-0.54681,0.0,na,0.0168,,,,,
JVASP-61253,K2Al2B2O7,-2.82056,4.842,na,0.0077,,,,,
JVASP-48321,LiV3O8,-2.38768,1.142,1.4,0.0497,,,,,
JVASP-98031,Hg4P2O7,-1.32558,1.939,na,0.0,,,,,
JVASP-107764,Fe3Si,-0.17817,0.0,na,0.0873,,,,,
JVASP-90640,ZrCrF6,-3.25578,0.0,0.0,0.0,,,,,
JVASP-65012,YBePt4,-0.53956,0.0,na,0.3043,,,,,
JVASP-65059,Ta4BeV,0.74501,0.0,na,0.842,,,,,
JVASP-85381,K4CO4,-1.51253,3.206,6.266,0.18,,,,,
JVASP-98642,Na3GaP2H2O9,-2.10183,4.103,na,0.0,,,,,
JVASP-98534,Na3ThP3O11,-2.70426,5.133,na,0.0,,,,,
JVASP-86916,LiScO2,-3.2446,3.916,na,0.0,,,,,
JVASP-88734,Li4ZrF8,-3.4729,6.197,na,0.0086,,,,,
JVASP-98262,Ba4Tl2Cu2HgO10,-1.67568,0.0,na,0.0,,,,,
JVASP-98069,LaS,-2.36006,0.0,na,0.0,,,,,
JVASP-65152,BeCr4Se,0.57813,0.0,na,0.8883,,,,,
JVASP-97318,La2MgCu2,-0.29295,0.0,na,0.0,,,,,
JVASP-85937,CrFeBi2O6,-1.51591,0.0,0.0,0.0596,,,,,
JVASP-90867,YSn3,-0.40031,0.0,na,0.0406,,,,,
JVASP-15000,AlFe,-0.35768,0.0,0.0,0.0,,,,,
JVASP-98330,Ca4Al2H22CO20,-1.69968,4.645,na,0.0,,,,,
JVASP-88392,La2MgGeO6,-3.10125,4.578,na,0.0,,,,,
JVASP-91573,Ti2HPd,-0.45498,0.0,na,0.0418,,,,,
JVASP-14845,Yb,-0.0,0.087,na,0.0,,,,,
JVASP-62415,CaB2H8,-0.36037,5.023,6.958,0.03,,,,,
JVASP-91804,SN,0.86592,0.0,na,0.8824,,,,,
JVASP-60910,K3Ge4Au,-0.3207,0.795,1.162,0.0,,,,,
JVASP-65303,TaBePb4,1.24994,0.0,0.0,1.3169,,,,,
JVASP-65192,BeZnFe4,0.24751,0.0,na,0.3268,,,,,
JVASP-43545,Li7V5O12,-2.46353,0.0,na,0.0598,,,,,
JVASP-85587,Cr3GeN,-0.3033,0.0,na,0.0225,,,,,
JVASP-14626,Tb,0.01596,0.0,0.0,0.0,,,,,
JVASP-15636,CeB2Rh3,-0.66481,0.0,na,0.0071,,,,,
JVASP-98599,PH8IN4,-0.3696,4.007,na,0.0,,,,,
JVASP-65376,BaSrHf2,0.80399,0.0,0.0,0.8223,,,,,
JVASP-91709,Mg3CoO4,-2.42514,0.0,na,0.1054,,,,,
JVASP-86165,OsN2,0.39292,0.0,0.0,0.4033,,,,,
JVASP-97661,SiBHC3NCl2,-0.02561,0.211,na,0.6572,,,,,
JVASP-86456,MgAlSi,-0.05251,0.0,na,0.055,,,,,
JVASP-91858,RbCrF6,-2.61741,0.0,na,0.0,,,,,
JVASP-62229,CuAs2O4,-1.08469,0.603,na,0.0311,,,,,
JVASP-65432,BaZr2Te,0.07797,0.0,na,1.0317,,,,,
JVASP-97413,NaSiBO4,-2.67005,5.561,na,0.0,,,,,
JVASP-62899,K2BC3N3,-0.32503,2.439,3.011,0.3273,,,,,
JVASP-91666,K3Co,0.70664,0.0,na,0.716,,,,,
JVASP-90126,ThSnRh,-0.92989,0.0,na,0.0,,,,,
JVASP-88858,UMo5O16,-2.34384,0.0,na,0.0,,,,,
JVASP-86614,FeWClO4,-1.77681,0.54,na,0.0604,,,,,
JVASP-97782,Rb4Tc6S13,-0.91721,1.038,na,0.0,,,,,
JVASP-97708,Pb5I2F8,-2.11026,2.771,na,0.0391,,,,,
JVASP-16174,SrAsPd,-1.00465,0.0,na,0.0,,,,,
JVASP-97836,Ho3TaO7,-3.69048,3.445,4.555,0.0,,,,,
JVASP-85725,EuZn2Sn2,-0.26157,0.0,na,0.8001,,,,,
JVASP-64899,Be2SnHg,0.71975,0.0,0.0,0.7198,,,,,
JVASP-86287,ThC2,-0.05492,0.0,na,0.3333,,,,,
JVASP-91532,LiIn2CuSe4,-0.65818,0.457,1.231,0.004,,,,,
JVASP-42554,V4O7F5,-2.58012,0.074,2.043,0.0607,,,,,
JVASP-64978,NaCaBe2,0.53563,0.0,na,0.6096,,,,,
JVASP-47989,Co2O3F,-1.28131,0.0,na,0.0195,,,,,
JVASP-86517,CaPt2O4,-1.36004,0.0,na,0.0823,,,,,
JVASP-88026,YCuW2O8,-2.51904,1.245,na,0.0,,,,,
JVASP-97366,KTlBr4,-0.97824,1.444,na,0.0,,,,,
JVASP-91757,SrAgSF,-2.19342,1.361,2.772,0.0,,,,,
JVASP-98414,Mg7TiH16,-0.22603,0.0,0.357,0.0967,,,,,
JVASP-90247,TiO2,-2.98834,0.951,1.461,0.2748,,,,,
JVASP-90182,ErCdGa,-0.50719,0.0,na,0.0,,,,,
JVASP-91953,Mg6FeSi,0.16065,0.0,na,0.2654,,,,,
JVASP-65269,BeNiIr4,0.70087,0.0,0.0,0.8941,,,,,
JVASP-65060,ZrBeGe4,0.39795,0.0,na,0.7028,,,,,
JVASP-97965,LaF3,-4.42304,6.245,na,0.0,,,,,
JVASP-98783,KMnF4,-2.7958,0.971,na,0.0,,,,,
JVASP-98482,Sr2CuCl2O2,-2.311,0.0,na,0.0,,,,,
JVASP-97538,LaP3H8O7,-1.45924,5.092,na,0.0257,,,,,
JVASP-43006,Li2Mn3TeO8,-1.71738,0.0,na,0.0,,,,,
JVASP-86744,YbGeIr,-0.85084,0.0,na,0.0,,,,,
JVASP-42821,LiFeCoO4,-1.52806,0.0,0.0,0.0863,,,,,
JVASP-61729,AlH3,-0.07486,3.488,5.693,0.0272,,,,,
JVASP-98535,Ti3Bi4O12,-2.31537,2.317,na,0.001,,,,,
JVASP-98891,PBr2N,-0.29895,2.946,na,0.0044,,,,,
JVASP-97611,FeS,-0.38194,0.0,na,0.1994,,,,,
JVASP-50699,LiNbTe3O12,-1.39813,1.712,2.844,0.0281,,,,,
JVASP-62587,Ba2LiB5O10,-2.82556,5.047,na,0.0,,,,,
JVASP-62736,CdB2H8,0.00129,3.624,5.506,0.0301,,,,,
JVASP-97895,TcBr4,-0.41844,0.331,na,0.0,,,,,
JVASP-37884,Cr3CdTe4,0.06464,0.0,na,0.2709,,,,,
JVASP-48406,V4O7F5,-2.58955,0.108,2.044,0.0513,,,,,
JVASP-87119,SrSiPd,-0.78102,0.0,na,0.0,,,,,
JVASP-49788,K4TiO4,-2.21694,3.486,5.255,0.0,,,,,
JVASP-64940,YBe2Se,-0.06982,0.0,na,0.864,,,,,
JVASP-107767,LaCeCu4Si4,-0.56689,0.0,na,0.0,,,,,
JVASP-65304,BePbBr4,0.5722,0.0,na,1.586,,,,,
JVASP-90780,SrMg,0.59556,0.0,na,0.7161,,,,,
JVASP-91901,CeMg7,0.07743,0.0,na,0.0852,,,,,
JVASP-98130,K4Co7O14,-1.45347,0.0,na,0.0,,,,,
JVASP-22564,AsS,-0.15061,1.466,14.702,0.0034,,,,,
JVASP-97322,Sc2Te3,-1.29118,0.003,0.239,0.0,,,,,
JVASP-86110,NaAgC2N2,-0.03798,2.493,3.296,0.2128,,,,,
JVASP-98600,Zn2SiH2O5,-1.81129,3.207,na,0.0067,,,,,
JVASP-65379,BaNiP2,-0.22332,0.0,0.0,0.6341,,,,,
JVASP-90641,SrCrF6,-3.20669,0.0,na,0.0,,,,,
JVASP-65153,TaTiBe,0.02219,0.0,na,0.1561,,,,,
JVASP-89319,ZnCdSe4C4N4,0.15534,2.902,4.212,0.3488,,,,,
JVASP-65226,BeCoRh,-0.24064,0.0,0.0,0.1626,,,,,
JVASP-14758,CuAu,-0.05108,0.0,0.0,0.0001,,,,,
JVASP-22591,ZnS,-0.88633,2.094,3.593,0.0005,,,,,
JVASP-64900,BeP4Pb,0.74401,0.0,na,0.8014,,,,,