jid,formula,formation_energy_per_atom,optb88vdw_bandgap,mbj_bandgap,ehull,spacegroup_number,natoms,volume,bulk_modulus_kv,shear_modulus_gv
JVASP-15370,UAsS,-1.21463,0.0,0.0,0.0,,,,,
JVASP-106735,SrCaPb6,-0.40122,0.0,0.0,0.0036,,,,,
JVASP-102830,CoH2O2,-0.84271,0.0,na,0.1672,,,,,
JVASP-107390,Na3VO4,-2.32044,3.81,4.466,0.0,,,,,
JVASP-105507,GaFe3,0.04924,0.0,na,0.147,,,,,
JVASP-11978,NbCo2,-0.16891,0.0,na,0.0267,,,,,
JVASP-16072,USe2,-1.18844,0.0,0.0,0.0,,,,,
JVASP-102622,Nd2Ge2Ru,-0.75216,0.0,na,0.0,,,,,
JVASP-15054,SrAl4,-0.32509,0.0,0.0,0.0,,,,,
JVASP-43897,Mn6O7F5,-2.046,0.0,na,0.0,,,,,
JVASP-28390,K2Mg2Si2O7,-2.80058,5.477,7.241,0.0,,,,,
JVASP-101819,H6C7SO,-0.05873,2.733,na,0.2132,,,,,
JVASP-48583,VO2F,-2.47141,2.526,3.001,0.0776,,,,,
JVASP-57375,BaSrFe4O8,-1.38986,0.0,na,0.5534,,,,,
JVASP-15033,HgTe,0.05835,0.0,0.0,0.0583,,,,,
JVASP-15518,YbCuGe,-0.61786,0.0,na,0.0005,,,,,
JVASP-15670,TbNi2B2C,-0.55687,0.0,na,0.0,,,,,
JVASP-106508,Ce3Pm,0.02602,0.0,na,0.026,,,,,
JVASP-105213,MgTi3,0.14435,0.0,0.0,0.1444,,,,,
JVASP-104735,HoEr,0.00038,0.0,na,0.0022,,,,,
JVASP-101993,H7C4,-0.04513,4.524,na,0.1234,,,,,
JVASP-104964,ErUTe4,-0.97815,0.0,na,0.0,,,,,
JVASP-106844,BaScO2F,-3.66998,3.035,na,0.0228,,,,,
JVASP-107337,HfTi,0.04829,0.0,na,0.06,,,,,
JVASP-107449,HfCu3,-0.11783,0.0,na,0.0,,,,,
JVASP-104794,FePtO2,-1.07732,0.0,na,0.0,,,,,
JVASP-105070,Na2AlHgBr6,-0.95729,0.0,na,0.2571,,,,,
JVASP-107284,SrPrVO4,-3.10938,0.0,na,0.0,,,,,
JVASP-104915,TiAlV2,-0.08805,0.0,na,0.1169,,,,,
JVASP-18485,TiCl2,-1.50184,0.0,0.0,0.0,,,,,
JVASP-102465,CaCeZn2,-0.32019,0.0,na,0.0,,,,,
JVASP-104849,HoZrRu2,-0.57767,0.0,0.0,0.0,,,,,
JVASP-107504,Fe3CoN,-0.07766,0.0,na,0.0627,,,,,
JVASP-107008,Tb3GaC,-0.47134,0.0,0.0,0.0,,,,,
JVASP-106955,La2AgHg,-0.41014,0.0,na,0.0,,,,,
JVASP-103812,H3C3SNO,-0.14393,0.9,na,0.2477,,,,,
JVASP-44056,V6O7F5,-2.68055,0.0,na,0.0349,,,,,
JVASP-107625,Rb2AgBiCl6,-1.37297,1.739,na,0.0,,,,,
JVASP-42199,Fe3O5F,-1.53392,0.0,na,0.0308,,,,,
JVASP-3996,WBr6,-0.4982,0.34,1.14,0.0,,,,,
JVASP-102776,Cr6C3N,-0.24911,0.0,na,0.0071,,,,,
JVASP-3249,Nd2SeO2,-3.19476,2.314,3.627,0.0,,,,,
JVASP-107119,K2AgAsF6,-2.27749,2.263,3.751,0.0534,,,,,
JVASP-28647,MoWSeS3,-0.81118,0.776,na,0.1226,,,,,
JVASP-106675,TaInSe2,-0.67201,0.0,0.0,0.0,,,,,
JVASP-106471,Li2MnF4,-2.78916,1.216,na,0.0634,,,,,
JVASP-106899,K2NaPrF6,-3.3907,6.064,9.25,0.1046,,,,,
JVASP-105360,TmScB2O6,-3.30518,4.599,5.677,0.0,,,,,
JVASP-14761,BaCd,-0.40289,0.0,na,0.0288,,,,,
JVASP-102432,K2ZnS2,-1.21324,2.675,4.491,0.0,,,,,
JVASP-14732,Ti,0.00939,0.0,0.0,0.0,,,,,
JVASP-103643,SmMn2SiC,-0.47195,0.0,na,0.0,,,,,
JVASP-102330,Na2ThF6,-3.74284,6.536,na,0.0064,,,,,
JVASP-104001,SnH4C2F2,-0.74967,3.194,na,0.1684,,,,,
JVASP-101876,SnH6C4O4,-0.57075,3.382,4.793,0.2226,,,,,
JVASP-103741,NiH2O2,-0.8642,0.817,0.971,0.0382,,,,,
JVASP-22520,BeF2,-3.44006,8.702,12.276,0.0,,,,,
JVASP-16135,Ce2CrN3,-1.42575,0.0,na,0.0,,,,,
JVASP-103691,Nb3AlSnMo3,-0.15169,0.0,na,0.0329,,,,,
JVASP-15094,DySi2Rh2,-1.05966,0.0,0.0,0.0,,,,,
JVASP-15169,ThB2Ru3,-0.4905,0.0,na,0.0135,,,,,
JVASP-107177,ErMgAg2,-0.34665,0.0,na,0.0,,,,,
JVASP-2205,Al2HgSe4,-0.69738,1.462,2.342,0.0,,,,,
JVASP-106399,YbMg2,-0.12869,0.0,na,0.0,,,,,
JVASP-13062,SnBr2,-0.82529,2.551,3.31,0.0,,,,,
JVASP-101958,CdH12C8O4,-0.42388,3.765,na,0.0975,,,,,
JVASP-18486,VCl3,-1.29378,0.0,0.0,0.0,,,,,
JVASP-101919,ZnH12C8O4,-0.35033,2.417,na,0.1996,,,,,
JVASP-101587,Mg3Tl,-0.04718,0.0,na,0.0092,,,,,
JVASP-16910,MoO2,-0.34469,0.0,na,1.8114,,,,,
JVASP-45210,NbV3O8,-2.48166,0.0,na,0.1206,,,,,
JVASP-29028,Te3MoWSe,-0.21408,0.373,na,0.1273,,,,,
JVASP-105434,NbZn3Ga3,-0.18089,0.0,na,0.0,,,,,
JVASP-105124,BiPd2Au,-0.20381,0.0,0.0,0.0034,,,,,
JVASP-101820,H2C3SO2,-0.25324,0.846,na,0.3704,,,,,
JVASP-104584,K3Zn,0.06146,0.0,0.0,0.0788,,,,,
JVASP-103877,SnH18C10O6,-0.44859,4.144,na,0.1228,,,,,
JVASP-102723,Li2SnPt,-0.70763,0.0,0.0,0.0,,,,,
JVASP-105072,TbRb2LiCl6,-2.24244,5.0,na,0.0,,,,,
JVASP-19828,CaNi5,-0.17209,0.0,na,0.0162,,,,,
JVASP-12912,Ga2TeSe2,-0.49004,1.633,2.592,0.0071,,,,,
JVASP-107232,Y2RuPt,-0.86549,0.0,0.0,0.0038,,,,,
JVASP-106956,Li3Pm,0.17529,0.0,na,0.176,,,,,
JVASP-50491,Li3CuO2,-1.60265,2.463,na,0.1193,,,,,
JVASP-106616,YbMg,-0.09781,0.0,0.0,0.0,,,,,
JVASP-107062,DySi2Pt2,-0.94425,0.0,0.0,0.021,,,,,
JVASP-106509,DyHoZn2,-0.38909,0.0,na,0.0,,,,,
JVASP-102669,ThUCu4Si4,-0.37755,0.0,na,0.0112,,,,,
JVASP-107338,HfTiC2,-0.94765,0.0,na,0.0376,,,,,
JVASP-49755,HoBiO3,-2.56636,2.423,3.968,0.0455,,,,,
JVASP-105279,YHo3,0.0025,0.0,na,0.0026,,,,,
JVASP-104688,Ta4CoNi,-0.26594,0.0,na,0.0,,,,,
JVASP-106557,Mg2Ni,-0.24086,0.0,na,0.0,,,,,
JVASP-106846,BaGa2SiS6,-1.14631,2.88,na,0.0,,,,,
JVASP-102433,K3VSe4,-1.0042,1.266,1.548,0.0,,,,,
JVASP-47056,CoSnO3,-1.27929,0.0,na,0.1868,,,,,
JVASP-107130,Na3InCl6,-1.46888,3.085,na,0.1425,,,,,
JVASP-106736,Sr2NbGaO6,-2.90209,3.171,3.852,0.0,,,,,
JVASP-18637,YBiPd2,-0.76348,0.0,0.0,0.0766,,,,,
JVASP-104795,Tb2SeO2,-3.28027,2.362,3.463,0.0328,,,,,
JVASP-106786,Li3Cu2O4,-1.46849,0.0,na,0.0,,,,,
JVASP-102572,Ti3Si,-0.43478,0.0,0.0,0.0358,,,,,
JVASP-106901,K2RbSbCl6,-1.5146,3.258,na,0.0944,,,,,
JVASP-15141,LuBPd3,-0.63321,0.0,0.0,0.1517,,,,,
JVASP-53554,KFe2As2,-0.34231,0.0,0.0,0.0108,,,,,
JVASP-42475,NiS2,-0.33433,0.0,na,0.0248,,,,,
JVASP-105215,MnTc2Sb,0.0911,0.0,na,0.0969,,,,,
JVASP-102832,NiP2O7,-1.65607,0.184,na,0.0201,,,,,
JVASP-107286,SrIn3Au,-0.48551,0.0,0.0,0.0,,,,,
JVASP-51116,IrOsW,0.38538,0.0,0.0,0.6659,,,,,
JVASP-104155,H4C7S2O,0.01722,1.522,na,0.2722,,,,,
JVASP-106680,ZrMo,0.06741,0.0,na,0.1716,,,,,
JVASP-13063,Sm2SCl4,-2.36449,3.508,4.395,0.0,,,,,
JVASP-104549,ZrTi3,0.02541,0.0,na,0.0254,,,,,
JVASP-15767,TmPPt,-1.33874,0.0,0.0,0.0009,,,,,
JVASP-102524,LiSi3,0.24655,0.0,0.0,0.3467,,,,,
JVASP-14383,InPd3,-0.41255,0.0,0.0,0.0266,,,,,
JVASP-19048,Na2Ti3O7,-2.96607,3.005,na,0.0122,,,,,
JVASP-107450,HoErIn2,-0.46014,0.0,0.0,0.0082,,,,,
JVASP-18931,PrGa2,-0.69819,0.0,na,0.0,,,,,
JVASP-103941,MgH2C3O4,-1.21776,4.483,na,0.1793,,,,,
JVASP-15121,ThGe2Rh2,-0.84034,0.0,na,0.0,,,,,
JVASP-107009,Sr2SmUO6,-3.34373,0.706,na,0.1111,,,,,
JVASP-104585,K3Rb,-0.02106,0.0,na,0.0,,,,,
JVASP-103644,La2MgSi2,-0.70701,0.0,na,0.0,,,,,
JVASP-15584,PrSi2Ni,-0.77128,0.0,na,0.0,,,,,
JVASP-19829,Fe2P,-0.42617,0.0,na,0.0083,,,,,
JVASP-1549,RbTmO2,-3.02256,3.722,5.632,0.0,,,,,
JVASP-18757,SrNiSn3,-0.46393,0.0,na,0.0,,,,,
JVASP-15469,YGe2Rh2,-0.86783,0.0,na,0.0,,,,,
JVASP-43159,Li2Fe3CoO8,-1.64176,0.0,0.0,0.018,,,,,
JVASP-104916,U2Cu3Si4Ni,-0.34918,0.0,na,0.0,,,,,
JVASP-104738,Ho2Ga3Cu,-0.62478,0.0,0.0,0.0,,,,,
JVASP-103694,MoIr4,-0.097,0.0,na,0.1815,,,,,
JVASP-107391,CaNiO3,-1.84128,1.009,na,0.03,,,,,
JVASP-104636,ErPRu2C,-0.68366,0.0,0.0,0.0013,,,,,
JVASP-105073,Rb2TlGaCl6,-1.49582,2.146,na,0.0536,,,,,
JVASP-105509,FeCoSe2,-0.11285,0.0,na,0.1829,,,,,
JVASP-11979,AlNi3,-0.38838,0.0,na,0.0588,,,,,
JVASP-103744,CoH4Cl2O2,-0.85646,0.158,na,0.0,,,,,
JVASP-44057,LiVBO3,-2.20629,0.591,na,0.2468,,,,,
JVASP-19838,DyAl2,-0.53763,0.0,na,0.0,,,,,
JVASP-106510,Ce2MgCd,-0.0591,0.0,na,0.0956,,,,,
JVASP-106957,Li3Pm,0.17627,0.0,na,0.177,,,,,
JVASP-104796,Rb2O,-1.17677,1.354,na,0.0,,,,,
JVASP-107179,K2HgAu,-0.30877,0.0,0.0,0.0,,,,,
JVASP-104850,HoLuIn2,-0.43253,0.0,0.0,0.0,,,,,
JVASP-15331,Pr2CuO4,-2.77044,0.0,na,0.0,,,,,
JVASP-107680,Nb3Os,-0.26023,0.0,0.0,0.0,,,,,
JVASP-105436,NaTlO2,-1.11176,0.0,na,0.1104,,,,,
JVASP-50058,Al2O3,-3.22476,6.011,7.302,0.0886,,,,,
JVASP-107506,ZrTi2Al,-0.24631,0.0,na,0.0405,,,,,
JVASP-101821,H5C6SNO,-0.09065,2.981,na,0.2118,,,,,
JVASP-107626,Na2HgAuF6,-1.61798,0.0,na,0.3164,,,,,
JVASP-104117,H10C17S2,0.08593,1.015,na,0.1797,,,,,
JVASP-104689,TaCu3Se3S,-0.54914,1.728,1.787,0.0,,,,,
JVASP-51233,NiRuBr2,0.76416,0.0,na,1.0437,,,,,
JVASP-2097,GaF3,-2.71457,5.03,7.969,0.0,,,,,
JVASP-106902,K2LiPrI6,-1.41884,2.894,3.502,0.0299,,,,,
JVASP-105216,Na3Ga,-0.03723,0.0,na,0.0202,,,,,
JVASP-22530,NaHF2,-2.32327,7.136,12.067,0.0129,,,,,
JVASP-57959,ZnFe4O8,-1.36013,0.0,na,0.0979,,,,,
JVASP-16073,SrSbPt,-0.99197,0.0,0.0,0.0,,,,,
JVASP-107131,Rb2TlAuI6,-0.74421,0.0,0.0,0.0648,,,,,
JVASP-103695,MnZnTe2,-0.20773,0.0,0.724,0.0971,,,,,
JVASP-19830,Te2Pd,-0.31222,0.0,0.0,0.0102,,,,,
JVASP-102573,TmMg3,-0.0518,0.0,na,0.0,,,,,
JVASP-102777,Cr3Os,0.17099,0.0,na,0.171,,,,,
JVASP-107010,SiPAu,-0.20678,0.93,1.203,0.0,,,,,
JVASP-107233,Y2CuPt,-0.85183,0.0,0.0,0.0,,,,,
JVASP-48137,LiMnF3,-2.63958,2.363,na,0.0778,,,,,
JVASP-104550,Ac3Au,-0.1532,0.0,na,0.1911,,,,,
JVASP-13993,HoSi2,-0.44565,0.0,0.0,0.1223,,,,,
JVASP-107064,Dy2FeCo3,-0.24993,0.0,na,0.0,,,,,
JVASP-106617,YbMg3,-0.07729,0.0,0.0,0.0192,,,,,
JVASP-105077,Rb2NaNdBr6,-1.88311,4.004,na,0.0,,,,,
JVASP-104586,LiAc3,0.13362,0.0,na,0.1424,,,,,
JVASP-107180,K3Na,-0.01214,0.0,na,0.001,,,,,
JVASP-14904,NdS2,-1.8644,0.0,na,0.0619,,,,,
JVASP-104002,SnH4C2F2,-0.74802,3.22,na,0.17,,,,,
JVASP-48191,Li2P2WO8,-2.26088,0.0,0.367,0.072,,,,,
JVASP-52220,NaSb3O8,-1.54813,0.867,na,0.0,,,,,
JVASP-102525,LiThHg2,-0.24631,0.0,0.0,0.0,,,,,
JVASP-102466,Cd3Pd,-0.21886,0.0,0.0,0.0082,,,,,
JVASP-14733,UAl2,-0.15547,0.0,na,0.0386,,,,,
JVASP-12980,BiTePd,-0.32054,0.0,na,0.0,,,,,
JVASP-14957,Zr2Al,-0.36348,0.0,na,0.0169,,,,,
JVASP-104739,Ho3Er3MnBi2,-0.42959,0.0,na,0.0,,,,,
JVASP-105437,NaCe2Se3,-1.77741,0.0,na,0.0,,,,,
JVASP-15805,BaZn2P2,-0.71449,0.0,0.408,0.0,,,,,
JVASP-11980,Nb6Co7,-0.18309,0.0,na,0.0151,,,,,
JVASP-15418,TiCo2Ge,-0.48138,0.0,0.0,0.0,,,,,
JVASP-104798,K2LiPrCl6,-2.15308,4.781,na,0.0491,,,,,
JVASP-106558,MgCo2Si,-0.31387,0.0,na,0.0,,,,,
JVASP-102833,VHgO3,-1.7759,1.97,na,0.0,,,,,
JVASP-1207,CdAs2,-0.0578,0.109,0.855,0.0,,,,,
JVASP-102623,YCdAu,-0.73516,0.0,na,0.0,,,,,
JVASP-107340,GaFe,-0.04002,0.0,na,0.1237,,,,,
JVASP-106903,K2RbAlCl6,-1.85387,4.421,na,0.0613,,,,,
JVASP-105217,Na3Zn,0.00525,0.0,na,0.0306,,,,,
JVASP-15034,TiGa3,-0.33534,0.0,0.0,0.017,,,,,
JVASP-107287,SrCaCu2O4,-1.96214,0.0,na,0.0348,,,,,
JVASP-2814,Na2AgAs,-0.42314,0.803,1.539,0.015,,,,,
JVASP-103813,H7C7NO,-0.00486,3.233,na,0.2918,,,,,
JVASP-106472,Li2CrNiO4,-1.88552,0.0,na,0.0324,,,,,
JVASP-101589,MgPd3,-0.49669,0.0,na,0.0125,,,,,
JVASP-105125,Ca2TlHg,-0.52926,0.0,0.0,0.0,,,,,
JVASP-105512,Fe3Co3Si2,-0.30449,0.0,na,0.0,,,,,
JVASP-45893,Mn9CdO10,-1.27943,0.0,na,0.1939,,,,,
JVASP-15628,HoSi2Ru2,-0.84441,0.0,na,0.0,,,,,
JVASP-15067,HoFe5,-0.09379,0.0,na,0.0115,,,,,
JVASP-106400,Dy3In4Co2,-0.26785,0.0,na,0.1443,,,,,
JVASP-15216,NdFe2Si2,-0.62099,0.0,na,0.0,,,,,
JVASP-42476,Cr3S4,-0.72593,0.0,na,0.0003,,,,,
JVASP-107132,Rb2DyAuCl6,-1.76808,1.988,na,0.0711,,,,,
JVASP-2044,Ca2AsI,-1.52948,1.499,2.004,0.0,,,,,
JVASP-107627,K2RbNdF6,-3.31004,5.137,9.4,0.2006,,,,,
JVASP-22571,SiO2,-2.8827,5.832,8.43,0.0186,,,,,
JVASP-105281,ZrCoH3,-0.42038,0.0,na,0.0,,,,,
JVASP-107451,Li2PrGa,-0.32729,0.0,0.0,0.0,,,,,
JVASP-106787,LaTiAlPbO6,-3.05474,2.601,na,0.0214,,,,,
JVASP-16911,CoO2,0.16414,0.0,0.0,1.231,,,,,
JVASP-107559,GaNi4Ge3,-0.29728,0.0,na,0.01,,,,,
JVASP-107234,Xe,0.00804,5.889,7.779,0.0,,,,,
JVASP-107392,LiMnF3,-2.7151,2.233,na,0.0022,,,,,
JVASP-105078,Rb2TlSbCl6,-1.38574,1.406,na,0.0132,,,,,
JVASP-104743,Ga4Bi3As,-0.03349,0.0,na,0.0502,,,,,
JVASP-102574,YbHoCd2,-0.42209,0.0,0.0,0.0,,,,,
JVASP-48584,Li2VOF4,-2.98624,0.5,na,0.0391,,,,,
JVASP-103647,PrMgIn,-0.45748,0.0,0.0,0.0,,,,,
JVASP-101877,SnH12C7O4,-0.41899,4.569,na,0.143,,,,,
JVASP-102835,NaMoF6,-2.73677,0.0,na,0.0,,,,,
JVASP-104638,CeMgNi4H4,-0.13953,0.0,na,0.1975,,,,,
JVASP-1552,RbLuO2,-3.0442,3.821,na,0.0,,,,,
JVASP-106959,LiMg,-0.11083,0.0,na,0.0036,,,,,
JVASP-101994,H6C4O3,-0.47604,5.845,na,0.2143,,,,,
JVASP-106737,Sr2MnRuO6,-2.28591,0.0,na,0.0,,,,,
JVASP-29030,Te3MoWSe,-0.22173,0.39,0.426,0.1197,,,,,
JVASP-106905,Na3SbCl6,-1.341,2.862,na,0.1737,,,,,
JVASP-42892,Tc3Ru,-0.04827,0.0,na,0.0,,,,,
JVASP-104800,K3InI6,-1.03048,1.187,2.15,0.1026,,,,,
JVASP-18675,Hf2Ga,-0.38164,0.0,na,0.0,,,,,
JVASP-16109,NdAsPd,-1.1823,0.0,na,0.0008,,,,,
JVASP-12981,Tl2AgI3,-0.53267,2.316,3.29,0.0,,,,,
JVASP-14905,BaSi2,-0.35096,0.0,na,0.0476,,,,,
JVASP-15721,Sb2Te,-0.07002,0.043,na,0.0027,,,,,
JVASP-15768,UTeP,-0.78232,0.0,0.0,0.0057,,,,,
JVASP-107681,NbOs3,-0.09932,0.0,na,0.0,,,,,
JVASP-107012,Ba2CaNbO6,-2.9548,0.0,na,0.0631,,,,,
JVASP-104156,H4C6SO2,-0.1559,2.25,na,0.3064,,,,,
JVASP-2697,NaNbSe2,-1.0584,0.626,1.043,0.0,,,,,
JVASP-104690,TaFePb2O6,-1.91828,0.0,1.35,0.0072,,,,,
JVASP-104551,Ac3Y,0.02866,0.0,na,0.0372,,,,,
JVASP-107181,HoLu3,-0.00428,0.0,na,0.0,,,,,
JVASP-18852,HoInNi,-0.54607,0.0,na,0.0,,,,,
JVASP-107341,Fe4Te3Se,-0.08724,0.0,na,0.0843,,,,,
JVASP-107066,ErAgTe2,-0.88042,1.098,1.672,0.0311,,,,,
JVASP-104851,Li2TlIn,-0.30591,0.0,0.0,0.0,,,,,
JVASP-15371,YB2Ru3,-0.46029,0.0,na,0.0,,,,,
JVASP-107628,K2RbMoI6,-0.89149,1.246,2.076,0.0773,,,,,
JVASP-1603,K2Se,-1.20708,2.171,4.313,0.0166,,,,,
JVASP-15245,LuAgSn,-0.50753,0.0,na,0.0157,,,,,
JVASP-103745,MnP2O7,-2.04863,1.04,na,0.0153,,,,,
JVASP-101959,CdH12C8O4,-0.42072,3.461,na,0.1007,,,,,
JVASP-101590,MgS2,-1.00225,0.909,2.073,0.1001,,,,,
JVASP-44058,Na2CoO3,-1.37843,0.271,na,0.1143,,,,,
JVASP-107133,Rb2PrAgF6,-3.00666,2.42,4.653,0.0912,,,,,
JVASP-104118,H10C16SO,0.02279,1.799,na,0.207,,,,,
JVASP-106847,AlSiMo,-0.344,0.0,0.0,0.0,,,,,
JVASP-105079,Rb3SmCl6,-2.15932,4.526,na,0.0,,,,,
JVASP-102670,TbSi2IrRh,-1.06111,0.0,0.0,0.0,,,,,
JVASP-52905,RbH2N,-0.38291,2.208,4.302,0.0,,,,,
JVASP-101822,H7C8NO,-0.10501,2.961,na,0.1743,,,,,
JVASP-105361,Tm2CuO4,-2.9736,0.0,na,0.0387,,,,,
JVASP-104587,LiGe2Ir,-0.32952,0.0,0.0,0.0,,,,,
JVASP-101920,ZnH14C9O4,-0.41476,4.406,na,0.0952,,,,,
JVASP-42209,RbTaO3,-2.81418,4.147,na,0.0221,,,,,
JVASP-106788,LaY,-0.00405,0.0,na,0.0257,,,,,
JVASP-105126,Ca2CuRh,-0.3502,0.0,na,0.0,,,,,
JVASP-105514,DyAlGa,-0.60036,0.0,na,0.0,,,,,
JVASP-18508,Si2NiP3,-0.27812,0.0,na,0.0,,,,,
JVASP-101878,SnH14C8O4,-0.38438,4.574,na,0.1348,,,,,
JVASP-107289,SmMn2Ni3,-0.1718,0.0,na,0.081,,,,,
JVASP-104746,CeUN2,-1.60148,0.0,na,0.016,,,,,
JVASP-15519,PrCo2Si2,-0.70896,0.0,0.0,0.0,,,,,
JVASP-102779,CeScPd6,-0.88741,0.0,na,0.0,,,,,
JVASP-107507,YErNi2,-0.55872,0.0,na,0.0,,,,,
JVASP-2481,Al2CdS4,-1.10629,2.864,4.171,0.0,,,,,
JVASP-18638,YbBiPd,-0.8116,0.0,0.0,0.0,,,,,
JVASP-104965,CuPd,-0.10256,0.0,0.0,0.0176,,,,,
JVASP-50492,Sr2CaI6,-1.70911,3.651,4.653,0.0629,,,,,
JVASP-104639,KTl2CrF6,-2.53663,1.863,na,0.0,,,,,
JVASP-18805,LiUN2,-1.38024,0.0,0.0,0.0,,,,,
JVASP-53096,CeMo6S8,-1.02522,0.337,na,0.002,,,,,
JVASP-102724,Li2CdIn,-0.3467,0.0,0.0,0.0,,,,,
JVASP-12068,Ho2C,-0.36802,0.0,na,0.0,,,,,
JVASP-105218,YbNa3,0.07867,0.0,na,0.0878,,,,,
JVASP-13846,YbCo3B2,-0.45912,0.0,0.0,0.0091,,,,,
JVASP-106559,MgHg5,0.14231,0.0,0.0,0.187,,,,,
JVASP-103696,Mo2CN,-0.40735,0.0,na,0.0,,,,,
JVASP-105282,LiB,-0.21924,0.0,0.303,0.032,,,,,
JVASP-103648,Zr6Te2Pt,-0.72913,0.0,na,0.0,,,,,
JVASP-104801,K3ErCl6,-2.1624,4.552,na,0.0,,,,,
JVASP-29187,Te2MoWSeS,-0.37922,0.185,na,0.1801,,,,,
JVASP-102575,YbMg3,-0.07943,0.0,0.0,0.0171,,,,,
JVASP-16005,V2PC,-0.71864,0.0,na,0.0,,,,,
JVASP-106681,ZrNbB4,-0.84442,0.0,0.0,0.0,,,,,
JVASP-12982,P3BrCl14,-0.54059,1.713,2.254,0.0,,,,,
JVASP-18932,ThAl2,-0.4864,0.0,0.0,0.0,,,,,
JVASP-42479,Cr2S3,-0.68634,0.0,na,0.0683,,,,,
JVASP-106906,K2CeAgI6,-1.1527,0.0,na,0.0591,,,,,
JVASP-104853,YbLaPd2,-0.93725,0.0,na,0.0,,,,,
JVASP-107452,LaYZn2,-0.39808,0.0,na,0.0,,,,,
JVASP-107393,MnF4,-2.24823,0.699,na,0.0728,,,,,
JVASP-11981,Nb3Al,-0.16807,0.0,na,0.0416,,,,,
JVASP-15068,Nd2Tl,-0.28068,0.0,na,0.0103,,,,,
JVASP-104917,Ti3Al5,-0.42193,0.0,0.0,0.0067,,,,,
JVASP-105080,KRb2AlBr6,-1.59474,3.252,na,0.0539,,,,,
JVASP-107682,PaTa,0.22748,0.0,na,0.2729,,,,,
JVASP-2580,RbHgF3,-2.02117,0.546,2.977,0.0,,,,,
JVASP-102526,LiTe3,-0.11801,0.0,na,0.299,,,,,
JVASP-107561,FeCoB2,-0.34565,0.0,na,0.0093,,,,,
JVASP-106401,TiS2,-1.42742,0.0,na,0.0,,,,,
JVASP-105127,Ca3Ac,0.02849,0.0,na,0.0439,,,,,
JVASP-107629,Rb2NaCeCl6,-2.16342,0.0,na,0.0017,,,,,
JVASP-102837,MnH2O2,-0.91393,0.753,2.071,0.2753,,,,,
JVASP-101823,H2C3SO2,-0.3174,2.438,na,0.3062,,,,,
JVASP-107013,ZrScMnNi3,-0.41904,0.0,na,0.0437,,,,,
JVASP-107236,Yb2AgAu,-0.80503,0.0,0.0,0.0,,,,,
JVASP-50204,LiAgO2,-0.74363,0.0,0.303,0.1975,,,,,
JVASP-106618,V3Cr,-0.04239,0.0,na,0.0063,,,,,
JVASP-16074,BaSbPt,-0.98531,0.0,0.0,0.0,,,,,
JVASP-104006,SnH8C4F2,-0.49828,3.892,na,0.1231,,,,,
JVASP-107182,KAlO3,-1.94716,0.0,na,0.3329,,,,,
JVASP-4627,TlTe3Pt2,-0.40416,0.081,0.134,0.0,,,,,
JVASP-103879,SnH16C9O6,-0.47972,3.898,na,0.1287,,,,,
JVASP-103814,H3C2SNO,0.00693,2.317,3.558,0.4471,,,,,
JVASP-104747,CeUSi4,-0.42435,0.0,na,0.0006,,,,,
JVASP-106962,LiSb3,-0.05567,0.0,0.0,0.1932,,,,,
JVASP-104802,Na3ScCl6,-1.92266,3.86,na,0.1256,,,,,
JVASP-15769,TmP,-1.70433,0.0,0.0,0.0,,,,,
JVASP-57240,Sr2MnClO3,-2.61998,0.0,na,0.0177,,,,,
JVASP-107134,Rb2InAuF6,-2.3151,0.289,2.142,0.0512,,,,,
JVASP-102726,LaLuAl4,-0.48871,0.0,na,0.0231,,,,,
JVASP-103650,RbDyI3,-1.34242,0.0,na,0.0047,,,,,
JVASP-105362,TlIn2GaSe4,-0.53761,0.483,0.812,0.0039,,,,,
JVASP-104552,Al2CuPd,-0.52878,0.0,0.0,0.0355,,,,,
JVASP-16912,FeO2,-0.11854,0.0,na,1.3018,,,,,
JVASP-107293,Sc2CO,-2.12125,0.0,0.437,0.0,,,,,
JVASP-105438,Na2Zn3GeAs4,-0.31282,0.0,0.013,0.0174,,,,,
JVASP-51234,Be2CdP,0.72503,0.0,na,0.8566,,,,,
JVASP-12983,SrBi2O4,-1.87133,2.48,3.458,0.0,,,,,
JVASP-106682,ZrTaTe4,-0.60586,0.0,na,0.0327,,,,,
JVASP-105219,NaAl3,0.07889,0.0,na,0.0819,,,,,
JVASP-106738,Sr2HfTiO6,-3.54669,2.651,3.385,0.0,,,,,
JVASP-106907,K2AlInCl6,-1.62216,2.676,na,0.0694,,,,,
JVASP-1432,NaTlO2,-1.22213,0.715,2.068,0.0,,,,,
JVASP-16007,YCo,-0.28395,0.0,na,0.0,,,,,
JVASP-51161,ReSn2Se,0.72795,0.0,na,0.9757,,,,,
JVASP-18758,ZrNiSn,0.04869,0.021,0.022,0.7604,,,,,
JVASP-15170,ErCo2Si2,-0.79492,0.0,na,0.0,,,,,
JVASP-51200,ZrCrFe,0.62506,0.0,0.0,0.8068,,,,,
JVASP-2952,Ba2HfS4,-2.10402,0.912,1.428,0.0,,,,,
JVASP-2586,Th2TeN2,-1.97825,1.673,2.079,0.0,,,,,
JVASP-15035,PRh2,-0.67956,0.0,0.0,0.0,,,,,
JVASP-101824,H4C7S3,0.15999,1.023,na,0.2404,,,,,
JVASP-103746,AlFeF5,-2.99457,0.363,0.988,0.0131,,,,,
JVASP-104854,Yb3La,0.05971,0.0,na,0.0664,,,,,
JVASP-14906,CaAl2Si2,-0.37566,0.0,na,0.0,,,,,
JVASP-107453,La2CdHg,-0.43619,0.0,na,0.0,,,,,
JVASP-106848,TbBa2NbO6,-3.31107,2.905,na,0.0,,,,,
JVASP-103942,MgH6C5O4,-0.8232,4.564,na,0.1285,,,,,
JVASP-105081,KRb2AlCl6,-1.93701,4.698,na,0.0,,,,,
JVASP-18460,PrSi2,-0.55381,0.0,na,0.0,,,,,
JVASP-18567,ZrTiAs,-0.97732,0.0,na,0.0,,,,,
JVASP-49756,Dy2Zr2O7,-3.74288,2.848,na,0.0105,,,,,
JVASP-102624,TbCu4Pd,-0.39036,0.0,0.0,0.0,,,,,
JVASP-107068,CoCu2GeSe4,-0.21217,0.0,na,0.0613,,,,,
JVASP-16031,ZrAsRu,-0.81623,0.0,na,0.0,,,,,
JVASP-19831,MnSb,0.0527,0.0,0.0,0.0527,,,,,
JVASP-107630,Rb2NaTaBr6,-1.36683,0.0,na,0.0281,,,,,
JVASP-107342,ErAlGa,-0.57957,0.0,0.0,0.0,,,,,
JVASP-13159,LiClO2,-0.82466,2.605,2.766,0.1733,,,,,
JVASP-101879,SnH18C10O4,-0.3391,4.084,na,0.1177,,,,,
JVASP-15246,MnAlCo2,-0.33714,0.0,0.0,0.0,,,,,
JVASP-106791,LaCeOs4,-0.24694,0.0,na,0.0146,,,,,
JVASP-32150,H4C,-0.21104,7.891,11.981,0.0,,,,,
JVASP-102576,YbCeCu2,-0.27355,0.0,na,0.0336,,,,,
JVASP-28572,Te2W3Se4,-0.3217,0.604,na,0.1546,,,,,
JVASP-106473,KLiSnO2,-1.7396,1.948,2.424,0.0255,,,,,
JVASP-106560,MgMnIr2,-0.28101,0.0,0.0,0.0,,,,,
JVASP-104640,BaSmCo2O6,-2.16296,0.0,na,0.0972,,,,,
JVASP-14734,ErFe2,-0.17667,0.0,0.0,0.0,,,,,
JVASP-18639,ThBi,-0.56687,0.0,0.0,0.0262,,,,,
JVASP-4140,GaCl3,-1.07468,3.92,6.033,0.0,,,,,
JVASP-103749,NaNiO2,-1.31269,0.0,na,0.0,,,,,
JVASP-103697,MnAlCuPd,-0.30115,0.0,0.0,0.1477,,,,,
JVASP-105130,CaInPd2,-0.70613,0.0,na,0.0,,,,,
JVASP-104748,CeNdN2,-1.67037,0.0,na,0.0,,,,,
JVASP-105285,Ho2MgCu2,-0.30535,0.0,na,0.0,,,,,
JVASP-104693,SrCaCr2O6,-2.62917,0.0,na,0.0308,,,,,
JVASP-15671,ErNi2B2C,-0.56377,0.0,na,0.0,,,,,
JVASP-19839,PuO,-2.84445,0.0,0.0,0.0357,,,,,
JVASP-11983,MgCo2,-0.06121,0.0,na,0.0,,,,,
JVASP-102781,CeSiBRh3,-0.75558,0.0,na,0.0773,,,,,
JVASP-102727,LaGaSi,-0.74794,0.0,na,0.0,,,,,
JVASP-104588,LiHfAu2,-0.59687,0.0,0.0,0.0092,,,,,
JVASP-102467,Cd3Se,-0.09058,0.0,na,0.2138,,,,,
JVASP-2484,NaSbF6,-2.56764,4.918,6.878,0.0,,,,,
JVASP-14907,NbFeB,-0.14781,0.0,na,0.3906,,,,,
JVASP-19915,U3Si,-0.22236,0.0,0.0,0.0539,,,,,
JVASP-107135,Na2LiGdCl6,-2.09386,2.775,na,0.0,,,,,
JVASP-105442,MnVCo4Si2,-0.36603,0.0,na,0.0222,,,,,
JVASP-101825,H4C6S2O,0.013,1.101,na,0.2874,,,,,