jid,formula,formation_energy_per_atom,optb88vdw_bandgap,mbj_bandgap,ehull,spacegroup_number,natoms,volume,bulk_modulus_kv,shear_modulus_gv
JVASP-92310,MgSb,-0.19771,0.0,na,0.1614,,,,,
JVASP-48918,Li4V2OF7,-2.89757,0.277,na,0.0976,,,,,
JVASP-106120,CaNdCoO4,-2.64552,0.0,0.0,0.0373,,,,,
JVASP-69679,Be2TeP,0.76909,0.0,na,1.0667,,,,,
JVASP-105687,Rb3InBr6,-1.4055,2.64,na,0.046,,,,,
JVASP-71214,BeCrPd2,-0.10734,0.0,0.0,0.2618,,,,,
JVASP-90899,KSi2BO6,-2.78032,5.626,na,0.0,,,,,
JVASP-96477,NaLuCl4,-2.21591,5.071,na,0.0,,,,,
JVASP-53967,Rb2H4Pd,-0.31167,2.954,na,0.0,,,,,
JVASP-106194,Li2WS4,-0.92454,1.318,2.322,0.1569,,,,,
JVASP-95175,KNOF2,-1.46694,3.175,4.122,0.0,,,,,
JVASP-86020,Fe2PO5,-1.73244,0.0,na,0.0065,,,,,
JVASP-70396,K2Ca2Be,0.70175,0.0,na,0.7386,,,,,
JVASP-70143,LiBe2Ni,-0.0525,0.0,0.0,0.2054,,,,,
JVASP-70453,Be2NiPd,-0.27667,0.0,na,0.2372,,,,,
JVASP-69988,YBe2W,0.25919,0.0,na,0.4716,,,,,
JVASP-71597,Zr2BeW,0.04011,0.0,na,0.2514,,,,,
JVASP-71652,BeCo2Si,-0.25336,0.0,0.0,0.2793,,,,,
JVASP-70825,BeCoOs2,-0.05126,0.0,na,0.1068,,,,,
JVASP-44293,TbNbO4,-3.33508,3.279,3.968,0.0018,,,,,
JVASP-92380,DyNi2P2,-1.00526,0.0,na,0.0,,,,,
JVASP-70779,BeCuP2,0.28847,0.0,na,0.4365,,,,,
JVASP-71516,Sr2BeNi,0.20635,0.0,0.0,0.4401,,,,,
JVASP-69768,LaBe2Pd,-0.06748,0.0,na,0.3905,,,,,
JVASP-74252,YScBe,0.26074,0.0,0.0,0.3444,,,,,
JVASP-93816,LiTiS2O2,-1.15079,0.0,na,0.8777,,,,,
JVASP-70926,BeRe2Hg,0.31669,0.0,0.0,0.4511,,,,,
JVASP-91407,RbSnS4,-0.66058,1.34,na,0.0,,,,,
JVASP-91474,K2Hg2SCl4O3,-1.24861,2.284,na,0.0336,,,,,
JVASP-93318,MgCd2,-0.0522,0.0,na,0.0339,,,,,
JVASP-105887,Zr3Be,0.05756,0.0,0.0,0.1296,,,,,
JVASP-76202,TmMgSn,-0.54968,0.0,na,0.0,,,,,
JVASP-92692,BaSb2Ru2,-0.41988,0.0,na,0.0617,,,,,
JVASP-69905,CaBe2Cr,0.76142,0.0,na,0.9227,,,,,
JVASP-71476,LiBe2Ru,-0.14483,0.0,na,0.1252,,,,,
JVASP-75883,NaAsPd,0.27768,0.0,na,0.6896,,,,,
JVASP-93913,PaPt5,-0.77973,0.0,na,0.0,,,,,
JVASP-94334,CeSe2,-1.64244,0.774,na,0.0746,,,,,
JVASP-70747,BeCoP2,-0.00912,0.0,na,0.4153,,,,,
JVASP-94136,Mg6CoC,0.286,0.0,na,0.307,,,,,
JVASP-68292,BeRu2Pb,0.34573,0.0,0.0,0.4806,,,,,
JVASP-93122,LaMg6Mo,0.2281,0.0,na,0.2938,,,,,
JVASP-15226,ErInPt,-1.02952,0.0,na,0.0,,,,,
JVASP-70687,KBe2Fe,1.37313,0.0,na,1.577,,,,,
JVASP-71140,CaBe2Tc,0.42841,0.0,na,0.5969,,,,,
JVASP-71108,Be2NbPd,-0.08419,0.0,na,0.2902,,,,,
JVASP-71004,Ti2BeCl,-0.18325,0.0,na,0.4663,,,,,
JVASP-72026,BeMo2Ru,0.15208,0.0,0.0,0.2976,,,,,
JVASP-42794,Li4VCr3O8,-2.28658,0.0,0.0,0.0255,,,,,
JVASP-69844,MnBe2Pd,-0.26682,0.0,0.0,0.1015,,,,,
JVASP-71297,BeFeSb2,0.17638,0.0,na,0.2837,,,,,
JVASP-94233,Mg6CdFe,0.10826,0.0,na,0.149,,,,,
JVASP-71562,BeCd2Br,0.21409,0.0,na,0.6199,,,,,
JVASP-69512,KBe2Ga,0.80384,0.0,0.0,0.8966,,,,,
JVASP-69682,Be2ReGe,0.1171,0.0,0.0,0.3859,,,,,
JVASP-85708,K2CoH4Se2O10,-1.10727,0.328,na,0.0603,,,,,
JVASP-86724,PrMg2Ni9,-0.28017,0.0,na,0.0164,,,,,
JVASP-105823,Mn2NbGa,-0.13563,0.0,0.0,0.0313,,,,,
JVASP-69601,Be2TlPd,0.08365,0.0,0.0,0.4059,,,,,
JVASP-71033,BeCuHg2,0.40515,0.0,0.0,0.4598,,,,,
JVASP-70858,BeMoP2,0.00237,0.0,0.0,0.4266,,,,,
JVASP-70147,TiBe2Zn,0.04838,0.0,0.0,0.288,,,,,
JVASP-94756,Mg6AlSi,0.04156,0.0,na,0.1364,,,,,
JVASP-71822,HfBeBi,0.49126,0.0,0.0,0.6893,,,,,
JVASP-69990,MnBe2Ga,0.09563,0.0,0.0,0.2906,,,,,
JVASP-70456,Be2VRu,-0.17436,0.0,0.0,0.136,,,,,
JVASP-71073,BePdPt2,-0.40685,0.0,na,0.0,,,,,
JVASP-71517,Be2TcBr,0.26474,0.0,na,0.7888,,,,,
JVASP-71598,Be2BiMo,0.44249,0.0,na,0.6634,,,,,
JVASP-71366,Be2GaTc,-0.00511,0.0,na,0.2283,,,,,
JVASP-92641,K2PdC2,-0.08417,1.665,na,0.0,,,,,
JVASP-71331,BeIn2Cl,0.03911,0.0,na,0.6014,,,,,
JVASP-71215,BeGaSb2,0.29934,0.0,na,0.3736,,,,,
JVASP-71405,BeGaPd,-0.14593,0.0,na,0.3066,,,,,
JVASP-70617,Be2CdNi,0.15153,0.0,na,0.4117,,,,,
JVASP-93489,ICl2,0.09166,0.0,na,0.2623,,,,,
JVASP-69691,ZrBe2Co,-0.07826,0.0,na,0.2747,,,,,
JVASP-91606,LuCuAs2,-0.76208,0.0,na,0.0022,,,,,
JVASP-75884,Re2GeAs,0.68146,0.006,0.0,0.7065,,,,,
JVASP-72261,YBeOs2,0.24824,0.0,na,0.5458,,,,,
JVASP-48445,MnOF,-2.11271,0.037,0.0,0.0,,,,,
JVASP-69846,BeCoBr4,1.34375,0.0,na,2.0206,,,,,
JVASP-76203,CeScSb,-0.74459,0.0,na,0.0599,,,,,
JVASP-28376,MoSeS,-0.79948,0.624,na,0.0171,,,,,
JVASP-70891,BeRu2Pb,0.31597,0.0,0.0,0.4509,,,,,
JVASP-71141,BeTc2Bi,0.26824,0.0,na,0.3504,,,,,
JVASP-74169,K2BeZn,0.55583,0.0,0.0,0.571,,,,,
JVASP-70398,MnBe2Pd,-0.26681,0.0,0.0,0.1015,,,,,
JVASP-71109,BeRe2Bi,0.39432,0.0,na,0.5287,,,,,
JVASP-74207,Be2RuBr,0.66835,0.0,na,1.2715,,,,,
JVASP-71477,Y2BeOs,-0.11673,0.0,na,0.1477,,,,,
JVASP-43818,Li2Fe2OF6,-2.40039,0.352,na,0.0862,,,,,
JVASP-71875,BeMo2Os,0.1269,0.0,na,0.2388,,,,,
JVASP-69771,BeZnPt,-0.19202,0.0,na,0.326,,,,,
JVASP-71252,Be2InRu,0.11469,0.0,0.0,0.3858,,,,,
JVASP-71444,Be2GaTc,0.10093,0.0,0.0,0.3344,,,,,
JVASP-71298,BeTl2Ir,0.05717,0.0,na,0.2114,,,,,
JVASP-94088,Mg6NiMo,0.19141,0.0,na,0.2817,,,,,
JVASP-22729,Sr2SbAu,-1.05124,0.771,0.975,0.0223,,,,,
JVASP-92895,Mg6CdMo,0.16525,0.0,na,0.2055,,,,,
JVASP-92445,EuMn2Ge2,-1.19853,0.0,na,0.0,,,,,
JVASP-70148,BeBiF3,-1.30027,1.052,na,1.4547,,,,,
JVASP-71773,ScBeRu2,-0.12668,0.0,0.0,0.3114,,,,,
JVASP-85664,KH3C2O3,-1.02674,5.513,7.419,0.1083,,,,,
JVASP-1189,InSb,-0.09369,0.0,0.134,0.0,,,,,
JVASP-69906,TiBeCr,0.31602,0.0,0.0,0.4896,,,,,
JVASP-95994,CaBePO4F,-3.10383,6.373,na,0.0173,,,,,
JVASP-71718,BeCo2Pt,-0.14892,0.0,0.0,0.1863,,,,,
JVASP-71935,BeCu2Os,0.21799,0.0,na,0.2726,,,,,
JVASP-71823,ZrBeCl2,-0.18483,0.0,0.0,1.1746,,,,,
JVASP-71182,HfMn2Be,-0.01958,0.0,na,0.2531,,,,,
JVASP-70317,TiBe2Cl,-0.14562,0.0,na,0.5829,,,,,
JVASP-70826,Be2CdIn,0.59938,0.0,na,0.6032,,,,,
JVASP-85363,Fe9Co7,-0.0251,0.0,na,0.0111,,,,,
JVASP-76204,NdScSi,-0.62596,0.0,0.0,0.0043,,,,,
JVASP-14858,HoPt3,-1.09226,0.0,na,0.0127,,,,,
JVASP-71406,BeFeBi,0.73309,0.0,na,0.8682,,,,,
JVASP-1318,CaTe,-1.77034,1.559,2.061,0.013,,,,,
JVASP-20066,CaCd,-0.4348,0.0,na,0.0,,,,,
JVASP-69849,BeHgBr,0.02154,0.0,na,0.556,,,,,
JVASP-69994,Be2NbOs,-0.03681,0.0,0.0,0.1849,,,,,
JVASP-71367,CaBe2Pd,-0.12474,0.0,na,0.3402,,,,,
JVASP-71034,LiBePt2,-0.4783,0.0,na,0.2388,,,,,
JVASP-71518,Be2HgPt,-0.0306,0.0,na,0.309,,,,,
JVASP-72263,BeTcHg2,0.8759,0.0,0.0,0.958,,,,,
JVASP-71599,KBeNb2,0.62436,0.0,na,0.7208,,,,,
JVASP-70964,HfBeP2,-0.5017,0.0,0.0,0.2686,,,,,
JVASP-71333,NaBe2Tc,0.20584,0.0,na,0.3732,,,,,
JVASP-105619,K2NaNdCl6,-2.11921,4.845,na,0.0801,,,,,
JVASP-71005,Be2TlHg,0.85379,0.0,na,0.8538,,,,,
JVASP-74294,HfBeTl,0.5118,0.0,0.0,0.623,,,,,
JVASP-93719,Ce2Mg,0.07064,0.0,na,0.0936,,,,,
JVASP-71110,BeSe2Br,-0.01404,0.0,na,0.6194,,,,,
JVASP-92264,Mn2AlB2,-0.42592,0.0,na,0.0,,,,,
JVASP-85438,UI4,-0.8356,0.282,na,0.0045,,,,,
JVASP-70529,TaBe2Tl,0.54453,0.0,0.0,0.738,,,,,
JVASP-69399,HfMnBe2,0.19036,0.0,0.0,0.4592,,,,,
JVASP-94278,PbBrF,-1.7828,2.946,na,0.0,,,,,
JVASP-74253,Sr2BeZn,0.08253,0.0,0.0,0.2435,,,,,
JVASP-71446,Be2FeBi,0.41042,0.0,na,0.6121,,,,,
JVASP-71253,MgBe2P,0.20613,0.0,na,0.6404,,,,,
JVASP-69514,Be2PdCl,0.14069,0.0,na,1.0016,,,,,
JVASP-70248,Be2SiW,-0.31539,0.0,0.0,0.0,,,,,
JVASP-71299,LiBe2Tc,0.10055,0.0,na,0.2651,,,,,
JVASP-14635,TbNi2,-0.48814,0.0,0.0,0.0001,,,,,
JVASP-60621,Au3F8,-1.03299,0.555,na,0.0,,,,,
JVASP-71142,BeNbSi2,0.2618,0.0,na,0.5912,,,,,
JVASP-92381,HoGe2Ru2,-0.60852,0.0,na,0.0,,,,,
JVASP-4747,ZnNi3Sb2,-0.0298,0.0,0.0,0.2141,,,,,
JVASP-71936,BeFe2Re,0.03165,0.0,na,0.2027,,,,,
JVASP-70069,TiBe2Cr,0.00685,0.0,0.0,0.2149,,,,,
JVASP-69912,MnBe2Re,-0.11136,0.0,na,0.1574,,,,,
JVASP-71564,Na2BeGe,0.24545,0.0,na,0.3466,,,,,
JVASP-92946,HfMg6Ga,0.02022,0.0,na,0.1316,,,,,
JVASP-71983,Mn2BeTc,0.03702,0.0,0.0,0.134,,,,,
JVASP-16118,YSiAu,-0.84238,0.0,0.0,0.0,,,,,
JVASP-71719,KBeNb,0.96311,0.0,0.0,1.0917,,,,,
JVASP-71007,BeNb2Br,0.29896,0.0,na,0.7469,,,,,
JVASP-50710,AgHg,0.22455,0.0,na,0.2245,,,,,
JVASP-92556,TbSi3Ir,-0.72164,0.0,na,0.0,,,,,
JVASP-71600,NaBe2Se,0.39456,0.0,na,1.0606,,,,,
JVASP-71653,Mn2Be2Te,0.43607,0.0,na,0.6758,,,,,
JVASP-93184,KMg6Cr,0.33687,0.0,na,0.338,,,,,
JVASP-49960,SmAsO4,-2.47376,4.035,na,0.0316,,,,,
JVASP-71074,Sr2BeBi,-0.00359,0.0,0.0,0.6591,,,,,
JVASP-71334,Be2BiRu,0.33141,0.0,na,0.6012,,,,,
JVASP-71878,KZrBe,0.77315,0.0,na,0.8721,,,,,
JVASP-17334,MnN,-0.14478,0.0,0.0,0.2951,,,,,
JVASP-71111,Be2HgMo,0.35205,0.0,na,0.573,,,,,
JVASP-14801,TiRu,-0.76496,0.0,0.0,0.0,,,,,
JVASP-71824,TiBeRe2,0.03809,0.0,na,0.4052,,,,,
JVASP-70927,BeNb2Ir,-0.28879,0.0,0.0,0.1412,,,,,
JVASP-16096,TlCu2S2,-0.31281,0.0,0.0,0.0,,,,,
JVASP-68294,BeFePt2,-0.21437,0.0,0.0,0.1137,,,,,
JVASP-72267,BeP2Rh,0.19583,0.0,0.0,0.7203,,,,,
JVASP-70401,Be2CuBi,0.5073,0.0,na,0.6165,,,,,
JVASP-72027,MnBeIr2,-0.17902,0.0,0.0,0.1801,,,,,
JVASP-71035,MgBe2Mo,0.1657,0.0,na,0.3866,,,,,
JVASP-69774,TiBeHg,0.72236,0.0,0.0,0.852,,,,,
JVASP-70689,Be2CoGe,-0.08275,0.0,na,0.1645,,,,,
JVASP-70780,BeNb2Fe,0.01891,0.0,0.0,0.1784,,,,,
JVASP-105688,Rb3SbCl6,-1.55814,3.39,na,0.0493,,,,,
JVASP-70859,MgBeV2,0.24471,0.0,na,0.3206,,,,,
JVASP-87181,CuAs2O4,-1.08465,0.603,na,0.0312,,,,,
JVASP-70459,ZrBe2Si,0.01503,0.0,na,0.5583,,,,,
JVASP-71565,SrBe2V,0.3807,0.0,na,0.5324,,,,,
JVASP-71407,Be2TcSn,0.1105,0.0,na,0.2748,,,,,
JVASP-93865,UPt4Au,-0.5705,0.0,na,0.0,,,,,
JVASP-74254,Be2FeRe,-0.03062,0.0,na,0.2394,,,,,
JVASP-70251,YBe2Fe,0.05322,0.0,na,0.2549,,,,,
JVASP-70534,TiBe2Ge,0.15076,0.0,0.0,0.5005,,,,,
JVASP-71447,BeSn2Os,0.15325,0.0,na,0.1532,,,,,
JVASP-71479,BeCdPb2,0.35435,0.0,na,0.3568,,,,,
JVASP-92513,LuSi2Rh2,-1.02733,0.0,na,0.0,,,,,
JVASP-93124,LiHfMg6,0.06064,0.0,na,0.0916,,,,,
JVASP-70827,Be2TcNi,-0.17644,0.0,na,0.1394,,,,,
JVASP-69604,BeFeOs,0.10748,0.0,0.0,0.2426,,,,,
JVASP-69696,CaBe2Rh,0.21634,0.0,na,0.5911,,,,,
JVASP-74171,BePbCl2,-0.01922,0.0,na,1.1001,,,,,
JVASP-70748,BeNi2Mo,-0.1174,0.0,0.0,0.1554,,,,,
JVASP-69404,SrLiBe2,0.45049,0.0,na,0.4928,,,,,
JVASP-69852,NaBe2Ga,0.50313,0.0,na,0.5545,,,,,
JVASP-70618,Be2NbCo,0.01933,0.0,0.0,0.2936,,,,,
JVASP-92312,MgSn,0.03661,0.0,na,0.2292,,,,,
JVASP-69515,ScBe2Si,0.04632,0.0,0.0,0.455,,,,,
JVASP-70071,Be2TlMo,0.41681,0.0,na,0.6377,,,,,
JVASP-71300,BeSn2P,0.20878,0.0,na,0.3531,,,,,
JVASP-14708,GePd2,-0.48734,0.0,0.0,0.0,,,,,
JVASP-94335,ErInPt4,-0.79907,0.0,na,0.1002,,,,,
JVASP-2175,Ga2Te5,-0.22494,0.956,1.449,0.0,,,,,
JVASP-86022,Cr2AgBiO8,-1.60568,1.302,1.244,0.0,,,,,
JVASP-70965,BeFeP2,-0.02246,0.0,0.0,0.4064,,,,,
JVASP-71216,BeCrIn2,0.40299,0.0,0.0,0.4842,,,,,
JVASP-70150,MgBe2Ge,0.50473,0.0,na,0.6347,,,,,
JVASP-91411,Ba2SnS4,-1.56589,1.866,na,0.0,,,,,
JVASP-105888,Zr3Mn,0.28991,0.0,na,0.367,,,,,
JVASP-74340,TiBeRe,0.14375,0.0,na,0.5181,,,,,
JVASP-94374,MgTi5,0.10366,0.0,na,0.1037,,,,,
JVASP-93319,CaMg2,0.05236,0.0,na,0.1942,,,,,
JVASP-42289,Fe4O7F,-1.49276,0.0,na,0.0374,,,,,
JVASP-71654,BeCr2Re,0.15075,0.0,na,0.2852,,,,,
JVASP-74208,MnBe2Ge,0.11299,0.0,na,0.2893,,,,,
JVASP-70928,SrBeSi4,0.3842,0.0,na,0.5852,,,,,
JVASP-74295,Be2SiP,0.49753,0.0,na,0.7203,,,,,
JVASP-70402,Be2NbSe,0.02463,0.0,na,0.5905,,,,,
JVASP-85783,PH3,0.01117,3.642,na,0.0122,,,,,
JVASP-87101,SrMo6S8,-1.00037,0.0,na,0.0,,,,,
JVASP-94234,Mg6CrFe,0.42541,0.0,na,0.4259,,,,,
JVASP-91330,Cr3B7BrO13,-2.26387,0.493,na,0.009,,,,,
JVASP-60771,CoO2,-0.98811,0.0,0.0,0.0788,,,,,
JVASP-70782,TaBeIn4,0.93102,0.0,na,1.0015,,,,,
JVASP-71369,Sr2BeOs,0.20304,0.0,na,0.2241,,,,,
JVASP-71183,KBeCo4,0.75136,0.0,na,0.8639,,,,,
JVASP-70696,HfBe2Fe,0.0515,0.0,0.0,0.3615,,,,,
JVASP-69995,LiBe2Ge,0.14506,0.0,na,0.3055,,,,,
JVASP-71256,ZrBeCl,-0.32558,0.0,0.429,0.667,,,,,
JVASP-106122,CaLaVFeO6,-2.77192,0.327,na,0.0912,,,,,
JVASP-93914,ZnSb2,0.08075,0.0,na,0.1087,,,,,
JVASP-71075,Be2BiBr,0.74143,0.0,na,1.1423,,,,,
JVASP-105969,U2Si3Ru,-0.36568,0.0,0.0,0.0495,,,,,
JVASP-42639,CuS,0.00274,0.0,na,0.2659,,,,,
JVASP-94137,HfMg6Co,0.11924,0.0,na,0.2335,,,,,
JVASP-94758,Mg6AlW,0.16288,0.0,na,0.2472,,,,,
JVASP-90902,TaTlS3,-0.90936,0.528,na,0.0,,,,,
JVASP-71335,Be2FeBr,0.33808,0.0,na,0.8904,,,,,
JVASP-71112,Y2BeSe,-0.83733,0.0,na,0.0965,,,,,
JVASP-74172,Y4BeZn,0.71441,0.0,na,0.8517,,,,,
JVASP-69518,TiBePt4,-0.08707,0.0,na,0.62,,,,,
JVASP-74255,Be2PtSe,-0.05365,0.0,na,0.6031,,,,,
JVASP-18789,Rh3W,-0.27845,0.0,na,0.0,,,,,
JVASP-70892,SrBe2Cr,1.00001,0.0,na,1.1571,,,,,
JVASP-72271,HfBeGa2,-0.26354,0.0,na,0.1132,,,,,
JVASP-71519,BeCrNi,0.06756,0.0,0.0,0.3792,,,,,
JVASP-60623,Ge3Sb2O9,-1.61248,3.037,4.96,0.0472,,,,,
JVASP-70462,Be2ReGe,0.03229,0.0,0.0,0.3011,,,,,
JVASP-29026,Te4MoW3Se4,-0.29041,0.506,na,0.1611,,,,,
JVASP-93817,YbCu4Au,-0.41002,0.0,na,0.0004,,,,,
JVASP-96481,Sc2Se3O9,-1.90334,3.994,na,0.0111,,,,,
JVASP-86361,SnPd2,-0.49196,0.0,na,0.0,,,,,
JVASP-70072,Be2TlP,0.70396,0.0,na,0.833,,,,,
JVASP-92597,NdAl3Cu,-0.51243,0.0,na,0.0,,,,,
JVASP-92738,Sm2InNi2,-0.53831,0.0,na,0.0,,,,,
JVASP-70537,Be2TlHg,0.78698,0.0,0.0,0.787,,,,,
JVASP-93263,CaTlF3,-3.21402,4.633,na,0.027,,,,,
JVASP-70152,Sr2BeSb2,-0.42748,1.322,na,0.3226,,,,,
JVASP-70860,MgBeSn,0.1368,0.0,na,0.2652,,,,,
JVASP-72033,Be2Cu2Bi,0.25924,0.0,na,0.3466,,,,,
JVASP-69697,BeSiP,0.52647,0.0,na,0.8235,,,,,
JVASP-93767,YbS2,-1.38316,0.0,na,0.2608,,,,,
JVASP-71143,Zr2BeCr,0.1582,0.0,na,0.2491,,,,,
JVASP-71566,Be2CrRh,-0.1633,0.0,0.0,0.2148,,,,,
JVASP-28828,WSeS,-0.6869,0.566,na,0.157,,,,,
JVASP-70749,BeInPb2,0.37403,0.0,na,0.3806,,,,,
JVASP-70318,Be2FePd,-0.32428,0.0,0.0,0.0572,,,,,
JVASP-91607,Pd3N,1.26386,0.0,na,1.2677,,,,,
JVASP-94414,CeMg5,0.05034,0.0,na,0.0607,,,,,
JVASP-92260,Fe3C,0.02842,0.0,0.0,0.0319,,,,,
JVASP-71370,BeReMo,0.26444,0.0,na,0.4436,,,,,
JVASP-71408,Be2HgSe,0.58874,0.0,na,1.0539,,,,,
JVASP-71984,KZrBe2,0.40916,0.0,na,0.5554,,,,,
JVASP-92805,KNi2Se2,-0.55859,0.0,na,0.0,,,,,
JVASP-71775,BeNi2W,-0.15351,0.0,0.0,0.2227,,,,,
JVASP-70252,NaBe2Te,0.57643,0.0,na,1.058,,,,,
JVASP-71937,BeGe2W,0.35649,0.0,na,0.5323,,,,,
JVASP-70929,NaBe2Pd,0.24142,0.0,na,0.5667,,,,,
JVASP-71257,BeHgSb,0.36498,0.0,na,0.365,,,,,
JVASP-70966,Be2IrPt,-0.69758,0.0,na,0.006,,,,,
JVASP-71185,ZrBeSb4,0.76145,0.0,na,1.0496,,,,,
JVASP-69916,NaBe2Cr,0.4518,0.0,na,0.6119,,,,,
JVASP-69777,Be2NbGa,0.06973,0.0,0.0,0.3519,,,,,
JVASP-74299,SrBeIn2,0.12185,0.0,na,0.5119,,,,,
JVASP-72278,BeCr2Te,0.60078,0.0,na,0.8123,,,,,
JVASP-69613,Be2CuTc,-0.03419,0.0,na,0.1301,,,,,
JVASP-63883,Ba4YPt,0.62051,0.0,0.0,1.0803,,,,,
JVASP-70700,Be2CoTe,0.30007,0.0,na,0.6696,,,,,
JVASP-70405,Be2CoNi,-0.19479,0.0,na,0.2271,,,,,
JVASP-69406,Be2BiPt,0.39203,0.0,na,0.8038,,,,,
JVASP-105621,K3VF6,-3.0237,0.0,na,0.0,,,,,
JVASP-86725,Dy2B4C,-0.63447,0.0,na,0.0,,,,,
JVASP-71520,Sr2BeCu,0.24491,0.0,na,0.3581,,,,,
JVASP-71076,ScBe2Pb,0.15536,0.0,na,0.3992,,,,,
JVASP-71601,Be2WSe,0.12879,0.0,0.0,0.7698,,,,,
JVASP-71008,BeOs2Cl,0.29958,0.0,na,0.8592,,,,,
JVASP-92896,Mg6GaMo,0.13585,0.0,na,0.1883,,,,,
JVASP-94089,RbMg6V,0.28667,0.0,na,0.2905,,,,,
JVASP-42847,Pr2AgRu,-0.22295,0.0,0.0,0.0104,,,,,
JVASP-15394,BaP2Ru2,-0.94122,0.0,0.0,0.0,,,,,
JVASP-70540,LaBe2V,0.56903,0.0,na,0.7207,,,,,
JVASP-74342,Be2PbSe,0.13192,0.0,na,0.5971,,,,,
JVASP-95176,Tm2Ga10Os3,-0.39753,0.0,na,0.005,,,,,
JVASP-85544,Pr3Ga10Ni,-0.5577,0.0,na,0.0,,,,,
JVASP-91251,Tm2Si2O7,-3.44231,4.852,na,0.0,,,,,
JVASP-71480,BeCrSb2,0.34631,0.0,0.0,0.4248,,,,,
JVASP-105751,CuPd3,-0.06177,0.0,na,0.0179,,,,,
JVASP-71658,Be2HgBr,0.73367,0.0,na,1.1345,,,,,
JVASP-85441,Eu2PBr,-1.56839,0.0,na,0.0,,,,,
JVASP-71113,Be2NbNi,0.07328,0.0,na,0.4013,,,,,
JVASP-70074,LaBe2Cd,0.22949,0.0,na,0.4136,,,,,
JVASP-74256,Be2PbBr,0.75779,0.0,na,1.1586,,,,,
JVASP-70406,TaBeRe,0.16499,0.0,na,0.3442,,,,,
JVASP-20093,NbPd3,-0.42379,0.0,0.0,0.0,,,,,
JVASP-92446,ThGe2Ru2,-0.66446,0.0,na,0.0,,,,,
JVASP-94864,Er2Mo2C3,-0.42817,0.0,na,0.038,,,,,
JVASP-93423,Sn2Ru,-0.09407,0.0,na,0.0577,,,,,
JVASP-71336,Be2ReGe,0.06863,0.0,na,0.3374,,,,,
JVASP-70320,Be2NbCr,0.0935,0.0,na,0.2904,,,,,
JVASP-71301,BeCdSn2,0.33416,0.0,na,0.3366,,,,,
JVASP-71448,Be2CuRh,-0.39532,0.0,na,0.0095,,,,,
JVASP-63885,Ba4TiPd,0.93532,0.0,0.0,1.1701,,,,,
JVASP-71036,BeCoHg2,0.36871,0.0,0.0,0.5267,,,,,
JVASP-70828,BeCoPd2,-0.19871,0.0,0.0,0.1733,,,,,
JVASP-71879,BeZnFe2,0.00425,0.0,na,0.1213,,,,,
JVASP-71409,BeSb2Pt,-0.10297,0.0,na,0.3207,,,,,
JVASP-70002,BeNiPt,-0.26341,0.0,na,0.1848,,,,,
JVASP-71777,BeGe2Mo,0.30126,0.0,na,0.4547,,,,,
JVASP-92382,U2SbN2,-1.34391,0.0,na,0.0,,,,,
JVASP-71567,BeSbTe2,0.32553,0.0,na,0.5916,,,,,
JVASP-50361,TbTaO4,-3.49255,3.739,4.944,0.0278,,,,,
JVASP-71825,TiBeCl2,-0.05603,0.0,0.0,1.1419,,,,,
JVASP-70930,LaY2Be,0.09148,0.0,na,0.1063,,,,,
JVASP-95996,ZnH4N2O8,-0.7527,3.332,na,0.0,,,,,
JVASP-105689,Rb3ScI6,-1.39418,2.351,na,0.0334,,,,,
JVASP-69917,TaBe2Pt,-0.21714,0.0,0.0,0.2696,,,,,
JVASP-70967,LiBePd2,-0.33275,0.0,na,0.2279,,,,,
JVASP-71985,MgTaBe2,0.14769,0.0,0.0,0.3411,,,,,
JVASP-70701,BeTcPt,-0.05618,0.0,na,0.2982,,,,,
JVASP-71144,Be2TlCl,0.11801,0.0,na,0.6777,,,,,
JVASP-71258,ScBe2Sn,0.24428,0.0,na,0.5735,,,,,
JVASP-52797,Li2MoO3,-2.22503,0.076,na,0.0305,,,,,
JVASP-60626,P2O5,-2.00572,5.397,na,0.0,,,,,
JVASP-70783,KZrBe2,0.72536,0.0,na,0.8716,,,,,
JVASP-69698,ZrBe2Br,0.45956,0.0,na,1.1029,,,,,
JVASP-71186,BeFeMo2,0.01779,0.0,na,0.1416,,,,,
JVASP-71371,Be2CdGe,0.54412,0.0,na,0.5466,,,,,
JVASP-70619,Be2GePb,0.76401,0.0,0.0,0.764,,,,,
JVASP-93720,Ce2Mg,0.11789,0.0,na,0.1408,,,,,
JVASP-72280,LiBeGe2,0.11819,0.0,na,0.2786,,,,,
JVASP-70861,BeMoRu2,-0.00047,0.0,na,0.1662,,,,,
JVASP-44010,Fe6O7F5,-1.66288,0.0,0.0,0.109,,,,,
JVASP-74344,ScBe2Tc,0.08437,0.0,na,0.3344,,,,,
JVASP-71720,MgBeIr2,-0.12064,0.0,0.0,0.2485,,,,,
JVASP-92265,HPbI3,-0.29871,2.226,na,0.0977,,,,,
JVASP-71481,HfBe2V,0.00659,0.0,na,0.1734,,,,,
JVASP-63886,Ba4InP,0.30296,0.0,na,0.967,,,,,
JVASP-70254,NaBe2Si,0.64387,0.0,na,0.6664,,,,,
JVASP-70407,HfBeSb,0.37751,0.0,na,0.7984,,,,,
JVASP-71521,Be2CuIr,-0.39468,0.0,na,0.0002,,,,,
JVASP-93866,CeInCu,-0.26795,0.0,na,0.0255,,,,,
JVASP-94336,DyInCu4,-0.28988,0.0,na,0.0,,,,,
JVASP-86563,Sr2NiTeO6,-1.88455,0.987,na,0.1238,,,,,
JVASP-92693,Pr2AlNi2,-0.4656,0.0,na,0.0063,,,,,
JVASP-70541,BeCoPt,-0.11167,0.0,na,0.3043,,,,,
JVASP-95036,TiSi2,-0.46567,0.0,0.0,0.0,,,,,
JVASP-71302,BeTeW,0.52014,0.0,na,0.9878,,,,,
JVASP-71037,MgBeBi4,0.65069,0.0,na,0.7249,,,,,
JVASP-48260,Li3Fe4O8,-1.60846,0.0,na,0.1376,,,,,
JVASP-16097,ZrTiTe4,-0.80493,0.0,0.0,0.0237,,,,,
JVASP-74301,K2TiBe,1.15652,0.0,na,1.2472,,,,,
JVASP-74209,Be2ZnMo,0.19321,0.0,0.0,0.4141,,,,,
JVASP-74258,TaBe2Tc,0.10961,0.0,na,0.4624,,,,,
JVASP-72284,K2BeTc,1.29592,0.0,na,1.3824,,,,,
JVASP-74173,Be2CuGe,0.25971,0.0,na,0.3689,,,,,
JVASP-69521,Be2ZnRu,-0.1629,0.0,0.0,0.1069,,,,,
JVASP-71145,BeSiW2,-0.20762,0.0,na,0.181,,,,,
JVASP-71114,KMgBe2,0.90365,0.0,na,0.9141,,,,,
JVASP-70077,YBe2Cl,0.06503,0.0,na,0.886,,,,,
JVASP-71077,NaBe2V,0.48076,0.0,na,0.6355,,,,,
JVASP-71337,Be2TlPb,0.80453,0.0,na,0.8133,,,,,
JVASP-71217,Ti2BeCo,-0.22644,0.0,0.0,0.0874,,,,,
JVASP-90917,NaMg2Tl,0.0866,0.0,na,0.1656,,,,,
JVASP-72035,BeWCl2,0.89771,0.0,0.0,2.1562,,,,,
JVASP-71372,CaBe2Se,0.11378,0.0,na,1.2018,,,,,
JVASP-71880,LiMnBe2,0.10319,0.0,na,0.2798,,,,,
JVASP-70006,Be2HgGe,0.69381,0.0,na,0.6938,,,,,
JVASP-70463,LiBe2Co,0.03142,0.0,0.0,0.2789,,,,,
JVASP-12016,PdSeO3,-0.66751,0.733,na,0.0126,,,,,
JVASP-70829,BePdSe2,-0.07251,0.0,na,0.5432,,,,,
JVASP-70154,YBe2Ni,-0.05851,0.0,na,0.2302,,,,,
JVASP-93491,USi2,-0.21169,0.0,na,0.0533,,,,,
JVASP-71826,BeTcIr2,-0.07663,0.0,0.0,0.208,,,,,
JVASP-71187,Be2HgCl,0.10212,0.0,na,0.6618,,,,,
JVASP-69854,Be2CoTc,-0.04758,0.0,0.0,0.1996,,,,,
JVASP-20067,KB6,-0.09451,0.0,na,0.0,,,,,
JVASP-71410,BeTl2Cu,0.28623,0.0,na,0.3408,,,,,
JVASP-70751,BeBiSe2,-0.16595,0.0,0.0,0.4698,,,,,
JVASP-71259,Be2PtBr,-0.1774,0.0,na,0.489,,,,,
JVASP-70968,BeNbRu2,-0.07883,0.0,0.0,0.1757,,,,,
JVASP-63887,Ba4MgMn,1.13317,0.0,0.0,1.1837,,,,,
JVASP-2142,FeS2,-0.63529,0.866,na,0.0,,,,,
JVASP-70544,NaBe2Tc,0.6714,0.0,na,0.8387,,,,,
JVASP-70323,Be2SnHg,0.531,0.0,na,0.531,,,,,
JVASP-69407,Be2GaP,0.42345,0.0,na,0.639,,,,,
JVASP-14636,Si,0.7229,0.0,0.0,0.0,,,,,
JVASP-71009,Sc2BeBr,-0.37774,0.0,0.0,0.2567,,,,,
JVASP-70409,Be2ReSe,0.4547,0.0,0.0,1.0542,,,,,
JVASP-70931,Be2HgBr,0.87331,0.0,na,1.2741,,,,,
JVASP-70702,NaBe2In,0.6235,0.0,na,0.7178,,,,,
JVASP-71483,BeTl2Cl,0.07568,0.0,na,0.6353,,,,,
JVASP-70784,BeGeRh2,-0.31863,0.0,na,0.2307,,,,,
JVASP-71450,BeIn2Hg,0.37669,0.0,na,0.3793,,,,,
JVASP-69704,Be2MoCl,0.65361,0.0,na,1.379,,,,,
JVASP-71568,HfBeCl,-0.26513,0.0,0.415,0.0,,,,,