jid,formula,formation_energy_per_atom,optb88vdw_bandgap,mbj_bandgap,ehull,spacegroup_number,natoms,volume,bulk_modulus_kv,shear_modulus_gv
JVASP-67936,Sc2BeCo,-0.12782,0.0,na,0.1773,,,,,
JVASP-85911,LaMgNi4,-0.35356,0.0,na,0.0,,,,,
JVASP-89948,Sr2Ti2Sb2OF2,-2.38683,0.0,na,0.0,,,,,
JVASP-87885,BaHo2O4,-3.5746,3.278,na,0.0,,,,,
JVASP-85640,NdInPd,-0.80582,0.0,na,0.0,,,,,
JVASP-91883,Mg7Cu,0.01689,0.0,na,0.0671,,,,,
JVASP-66938,TiBeOs,-0.02115,0.0,na,0.526,,,,,
JVASP-90753,Ti2TlC,-0.61226,0.0,na,0.0,,,,,
JVASP-67836,LiBeBr,0.04236,0.531,na,1.1753,,,,,
JVASP-75543,Co2SnAs,0.5633,0.0,0.0,0.7477,,,,,
JVASP-75764,Ti2AsW,-0.15398,0.0,na,0.5022,,,,,
JVASP-67762,KBeRh2,0.17158,0.0,na,0.4733,,,,,
JVASP-90679,OsC,0.73703,0.191,0.21,0.7386,,,,,
JVASP-90521,Na4PtO4,-1.3021,0.89,na,0.0791,,,,,
JVASP-86770,RbCrCl3,-1.43614,0.057,na,0.0299,,,,,
JVASP-86189,RbCdAg3C6N6,0.21183,2.525,3.224,0.2792,,,,,
JVASP-86657,EuSn,-0.79209,0.0,na,1.862,,,,,
JVASP-67307,CaMgBe,0.20384,0.0,na,0.3252,,,,,
JVASP-67397,LiBeSb,0.07877,0.0,na,0.4106,,,,,
JVASP-89016,TiSn2O4,-2.21997,1.118,na,0.0013,,,,,
JVASP-91832,LaMg6B,0.18938,0.0,na,0.3293,,,,,
JVASP-90323,Mo2WS6,-0.99771,1.017,na,0.0,,,,,
JVASP-75730,AsOs2Pd,0.59536,0.0,na,0.7492,,,,,
JVASP-18742,MgNi2Sn,-0.28382,0.0,na,0.0,,,,,
JVASP-67798,ScBeW2,-0.11766,0.0,0.0,0.2235,,,,,
JVASP-73723,Be2CrW,0.01051,0.0,na,0.3068,,,,,
JVASP-67634,BeGa4Sn,0.41461,0.0,na,0.4146,,,,,
JVASP-90894,CeCuSb2,-0.65506,0.0,na,0.0,,,,,
JVASP-67560,BeP2Br,0.90099,0.0,na,1.3448,,,,,
JVASP-86084,NdAlPt,-1.10807,0.0,na,0.0,,,,,
JVASP-16186,YbPPt,-1.26056,0.0,na,0.0,,,,,
JVASP-19860,V3Au,-0.04964,0.0,na,0.0,,,,,
JVASP-86821,K2OsNCl5,-1.03179,1.722,na,0.1336,,,,,
JVASP-86339,CuF2,-1.62264,0.0,0.0,0.0145,,,,,
JVASP-3762,K2PdBr4,-1.2222,1.306,1.221,0.0,,,,,
JVASP-91931,K3NaH4,-0.28341,2.297,5.032,0.036,,,,,
JVASP-22626,TeF4,-2.16468,4.127,6.466,0.0,,,,,
JVASP-68880,Be2CoBi,0.44181,0.0,na,0.689,,,,,
JVASP-67250,BeOsPb,0.34652,0.0,0.0,0.3465,,,,,
JVASP-48430,LiCo2OF3,-1.80191,0.0,na,0.1611,,,,,
JVASP-75582,LaBAs,0.00374,0.0,na,1.1501,,,,,
JVASP-66847,MgTiBe,0.09336,0.0,0.0,0.2086,,,,,
JVASP-87144,CeAlNi,-0.59539,0.0,na,0.0,,,,,
JVASP-88310,Li2HN,-0.59698,2.944,na,0.037,,,,,
JVASP-85508,Si2H2O5,-2.13528,4.943,7.135,0.1308,,,,,
JVASP-85349,YPdPb,-0.60977,0.0,na,0.1575,,,,,
JVASP-87089,CeB2Ir2,-0.714,0.0,na,0.0,,,,,
JVASP-75510,Tc2AsPd,0.34395,0.0,na,0.5137,,,,,
JVASP-89203,RbHfF5,-3.77468,6.818,na,0.0,,,,,
JVASP-5281,SiH4,-0.00083,6.144,7.79,0.0012,,,,,
JVASP-68256,BeCoPt2,-0.15874,0.0,0.0,0.1664,,,,,
JVASP-92239,LiPrS2,-1.9069,1.926,na,0.0636,,,,,
JVASP-68569,TiBe2Os2,-0.01024,0.0,na,0.341,,,,,
JVASP-67882,BeGe2Br,0.68258,0.0,na,1.0834,,,,,
JVASP-67092,Be2TeMo,0.33391,0.0,na,0.6559,,,,,
JVASP-68394,Be2NiIr,-0.52118,0.0,na,0.0586,,,,,
JVASP-72570,Be2TeSe,0.69254,0.0,na,1.3692,,,,,
JVASP-68326,BeInPb2,0.5009,0.0,na,0.5075,,,,,
JVASP-68620,MgBe2Tc,0.04834,0.0,na,0.2126,,,,,
JVASP-595,TaSe2,-0.79764,0.0,na,0.0256,,,,,
JVASP-91645,LaCoAsO,-1.98335,0.0,na,0.0,,,,,
JVASP-87994,Li2B2S5,-0.80898,2.497,na,0.0001,,,,,
JVASP-18913,HgPt,0.18834,0.0,na,0.1883,,,,,
JVASP-85698,CaSiSnO5,-2.68143,3.473,5.058,0.0,,,,,
JVASP-91594,Al2CuIr,-0.6764,0.0,na,0.0,,,,,
JVASP-73925,BeCdPt2,-0.27382,0.0,0.0,0.0818,,,,,
JVASP-67489,Be2SnPt,-0.02707,0.0,na,0.4667,,,,,
JVASP-15985,Rb3As,-0.37983,0.0,1.075,0.0,,,,,
JVASP-90223,HoNiSn,-0.69651,0.0,na,0.0052,,,,,
JVASP-73731,MgBe2Sn,0.49815,0.0,na,0.5944,,,,,
JVASP-67722,ZrBeFe4,-0.1066,0.0,0.0,0.1156,,,,,
JVASP-90105,EuInPd,-0.83075,0.0,na,0.0,,,,,
JVASP-75731,NbAsP2,0.35686,0.0,na,0.8803,,,,,
JVASP-86489,ErCu2Ge2,-0.46348,0.0,na,0.0106,,,,,
JVASP-15079,PuIr2,-0.28018,0.0,na,0.0,,,,,
JVASP-86712,CaAlAu,-0.78892,0.0,na,0.0,,,,,
JVASP-75699,LiTi2As,-0.07977,0.0,0.0,0.5249,,,,,
JVASP-68512,Be2PdPt,-0.65415,0.0,0.0,0.0091,,,,,
JVASP-67837,YBe2Pb,0.17509,0.0,na,0.4461,,,,,
JVASP-15532,SmNi2Ge2,-0.6982,0.0,na,0.0,,,,,
JVASP-14882,DyIn,-0.47398,0.0,na,0.013,,,,,
JVASP-91982,NaCuO2,-1.09344,0.977,na,0.0597,,,,,
JVASP-86140,DyFe2SiC,-0.57688,0.0,na,0.0,,,,,
JVASP-86545,LaB2ClO4,-2.89888,5.086,na,0.0,,,,,
JVASP-48198,Li4MnSb2WO12,-1.96884,1.004,na,0.0766,,,,,
JVASP-75511,Tc2GeAs,0.37384,0.0,na,0.5223,,,,,
JVASP-48244,LiFeSiO4,-2.21574,1.269,na,0.0862,,,,,
JVASP-67597,SrBeGe,0.10597,0.0,na,0.5772,,,,,
JVASP-67799,HfBe2In,0.06557,0.0,na,0.2979,,,,,
JVASP-91782,TbFeGe2,-0.49391,0.0,na,0.0602,,,,,
JVASP-75655,NaMo2As,0.39414,0.0,na,0.6468,,,,,
JVASP-12152,ZrMo2O8,-2.46513,2.837,3.499,0.0803,,,,,
JVASP-14660,HfFe2,-0.36118,0.0,0.0,0.0072,,,,,
JVASP-72659,BeNbCu,0.29615,0.0,na,0.4219,,,,,
JVASP-75802,TeAsIr,-0.03802,0.0,0.0,0.315,,,,,
JVASP-50922,CuAuO2,-0.45833,0.0,na,0.0123,,,,,
JVASP-90036,TiFeP,-1.02869,0.0,na,0.0341,,,,,
JVASP-91693,ErSi,-0.79995,0.0,na,0.0,,,,,
JVASP-67681,BeCu2Br,0.28238,0.0,0.0,0.7105,,,,,
JVASP-48908,Li2NiO2F,-2.01319,0.0,na,0.0371,,,,,
JVASP-68571,BePW,-0.32231,0.0,na,0.0085,,,,,
JVASP-73288,NaBe2Pt,-0.07677,0.0,0.0,0.3319,,,,,
JVASP-67998,BeCrIr2,-0.15784,0.0,0.0,0.1316,,,,,
JVASP-67400,BeCoP,-0.00731,0.0,na,0.4269,,,,,
JVASP-68683,Na2BeCl,-0.22349,0.0,0.258,0.7478,,,,,
JVASP-68748,Sc2BeCl,-0.19852,0.0,0.0,0.6244,,,,,
JVASP-67498,BeReBi,0.52423,0.0,na,0.7034,,,,,
JVASP-90802,Bi,0.08227,0.0,na,0.0,,,,,
JVASP-75470,CdAsOs,1.36599,0.0,na,1.4651,,,,,
JVASP-2002,LiH,-0.50396,3.558,na,0.028,,,,,
JVASP-43580,Li3FeF6,-2.62384,0.0,0.0,0.1972,,,,,
JVASP-68203,BeCdW2,0.38008,0.0,0.0,0.6976,,,,,
JVASP-68448,BeFePb2,0.77787,0.0,0.0,0.8792,,,,,
JVASP-68621,BeTl2Br,0.18337,0.0,na,0.6285,,,,,
JVASP-63394,B2Mo,-0.24573,0.0,0.0,0.1613,,,,,
JVASP-18550,NdSi2Rh3,-0.94623,0.0,na,0.0438,,,,,
JVASP-21207,Rb,0.00071,0.0,12.526,0.0,,,,,
JVASP-89949,Rb2Ni3S4,-0.82076,0.764,na,0.0,,,,,
JVASP-86190,Na2BeH4,-0.32349,4.773,na,0.0,,,,,
JVASP-42674,Fe4O3F5,-1.78584,0.0,na,0.1045,,,,,
JVASP-3138,Nd2TeS2,-1.99583,1.589,2.217,0.0078,,,,,
JVASP-67011,CaBeGa,0.03058,0.0,na,0.4261,,,,,
JVASP-14117,NaBH4,-0.34591,6.429,8.925,0.0296,,,,,
JVASP-52349,LaUO4,-3.67108,0.0,2.251,0.0778,,,,,
JVASP-87025,Li2BeSiO4,-2.82719,6.397,na,0.0,,,,,
JVASP-43986,V2O3F,-2.65659,0.0,na,0.0214,,,,,
JVASP-68327,Be2NbTc,-0.08063,0.0,na,0.2056,,,,,
JVASP-75544,V2AsAu,0.36441,0.0,na,0.6872,,,,,
JVASP-541,CoTe2,-0.19224,0.0,0.0,0.0125,,,,,
JVASP-66939,TaBeTe,0.51744,0.0,0.0,0.8251,,,,,
JVASP-75804,Mo2AsW,0.25338,0.0,na,0.5257,,,,,
JVASP-86890,ThC2,-0.05492,0.0,na,0.3333,,,,,
JVASP-67598,CaLaBe2,0.25935,0.0,na,0.3424,,,,,
JVASP-74092,BeCr2Cd,0.26725,0.0,0.0,0.3483,,,,,
JVASP-1972,Sr2NCl,-1.63922,1.921,2.956,0.0269,,,,,
JVASP-75471,ScAsP,-0.35875,0.0,na,0.7096,,,,,
JVASP-88080,Ba4Br6O,-2.48254,4.412,na,0.0,,,,,
JVASP-91553,BaAgSeF,-2.15165,1.384,2.689,0.0,,,,,
JVASP-88687,K3SmB2O6,-2.67449,3.739,na,0.0,,,,,
JVASP-43324,MnOF,-2.09902,0.0,na,0.0,,,,,
JVASP-92187,CaCeMg6,-0.01274,0.0,na,0.0482,,,,,
JVASP-18788,TmRh2,-0.79812,0.0,na,0.0,,,,,
JVASP-88462,Na2UO4,-2.75994,2.124,2.178,0.0633,,,,,
JVASP-73741,CaHfBe2,0.32106,0.0,na,0.4921,,,,,
JVASP-85427,MnGePd,-0.19703,0.0,na,0.0828,,,,,
JVASP-91733,Ce2BiN,-1.2226,0.0,0.0,0.0281,,,,,
JVASP-67158,BeGaBr,-0.06154,0.0,0.0,0.4729,,,,,
JVASP-15781,P,0.06344,0.0,0.0,0.0,,,,,
JVASP-86953,LaFe2P2,-1.0241,0.0,na,0.0,,,,,
JVASP-48024,LiMnF3,-2.68177,2.229,na,0.0356,,,,,
JVASP-18699,DySi2Rh3,-0.95137,0.0,na,0.0,,,,,
JVASP-90331,Mo2WSe2S4,-0.88895,0.841,na,0.0078,,,,,
JVASP-72663,Be2CoSi,-0.23001,0.0,0.0,0.0583,,,,,
JVASP-90106,PuGaNi,-0.12676,0.0,na,0.3136,,,,,
JVASP-90427,FeNiAs,-0.08066,0.0,na,0.0929,,,,,
JVASP-90524,Li3MnOF4,-2.7422,0.63,na,0.0,,,,,
JVASP-75765,AsOsAu,1.28815,0.0,0.0,1.384,,,,,
JVASP-89850,CrH8N2O4,-0.92896,2.806,na,0.0089,,,,,
JVASP-67096,Be2CuRe,0.01837,0.0,na,0.2871,,,,,
JVASP-67763,SrBeBi,0.05615,0.0,0.0,0.6532,,,,,
JVASP-85977,CeP5,-0.55973,0.0,na,0.0,,,,,
JVASP-42873,Ho2ZnIn,-0.42207,0.0,na,0.0073,,,,,
JVASP-67308,CaZrBe,0.17502,0.086,na,0.2767,,,,,
JVASP-68812,Mn2Be2Zn,0.41367,0.0,na,0.5558,,,,,
JVASP-75545,AsPdSe,-0.13364,0.0,na,0.2144,,,,,
JVASP-90754,DyGa2Pd,-0.79031,0.0,na,0.0,,,,,
JVASP-68148,BeFeNi2,-0.11894,0.0,0.0,0.145,,,,,
JVASP-43809,Li4Ti5Fe3O16,-2.57651,0.027,na,0.0469,,,,,
JVASP-67635,Be2SnMo,0.48274,0.0,0.0,0.7036,,,,,
JVASP-86264,KIn9Ni2,-0.12903,0.0,na,0.0,,,,,
JVASP-14966,HoPt2,-1.13457,0.0,na,0.0813,,,,,
JVASP-75583,Zn2ReAs,0.5429,0.0,0.0,0.6117,,,,,
JVASP-15310,SmSi2Ru2,-0.83807,0.0,0.0,0.0,,,,,
JVASP-67838,BeCu4Sn,0.18788,0.0,na,0.2317,,,,,
JVASP-67402,Be2SbPd,0.09905,0.0,na,0.4213,,,,,
JVASP-75472,YTcAs,-0.09055,0.0,na,1.0052,,,,,
JVASP-66848,BeNiCl,0.13313,0.0,0.0,1.0352,,,,,
JVASP-74021,BeGa2Fe,0.02947,0.0,na,0.2568,,,,,
JVASP-67937,HfBeNb2,0.14782,0.0,0.0,0.2421,,,,,
JVASP-86315,LaPd3,-0.8402,0.0,na,0.0243,,,,,
JVASP-91884,KMg7,0.1387,0.0,na,0.1398,,,,,
JVASP-91834,RbMg6Mo,0.4084,0.0,na,0.4122,,,,,
JVASP-85765,S,0.18204,0.461,0.807,0.0,,,,,
JVASP-68881,BeCdTe2,0.33081,0.0,0.0,0.7469,,,,,
JVASP-3768,RbIO3,-1.07456,2.631,4.411,0.0,,,,,
JVASP-75512,MgMnAs,0.34055,0.0,na,0.7799,,,,,
JVASP-86822,Ba3Al3Ga2,-0.42396,0.0,na,0.0,,,,,
JVASP-89017,K3NbS4,-1.37375,2.31,na,0.0,,,,,
JVASP-75613,AsPtCl,0.88252,0.0,0.0,1.3529,,,,,
JVASP-75766,Mo2AsIr,0.29488,0.0,na,0.596,,,,,
JVASP-75546,Tc2AsIr,0.37896,0.0,na,0.6691,,,,,
JVASP-75658,MnAsAu,0.20117,0.0,na,0.3383,,,,,
JVASP-86422,CoAsS,-0.29519,0.0,0.0,0.1971,,,,,
JVASP-63402,Ho3Sb4Au3,-0.80607,0.61,na,0.0,,,,,
JVASP-91647,TbNiSb2,-0.69313,0.0,na,0.0212,,,,,
JVASP-68395,Sr2BeCo,0.33874,0.0,0.0,0.4968,,,,,
JVASP-74093,BeZn2Cd,0.26531,0.0,na,0.2678,,,,,
JVASP-86771,Ag2Se,0.07114,0.0,na,0.1361,,,,,
JVASP-72729,LiBe2W,0.01643,0.0,na,0.2291,,,,,
JVASP-90617,TaCo3,-0.26584,0.0,0.0,0.0123,,,,,
JVASP-86340,UGe2,-0.25462,0.0,na,0.0258,,,,,
JVASP-13888,UCo2P2,0.01976,0.0,na,0.8285,,,,,
JVASP-20090,SiIr,-0.605,0.0,0.0,0.0,,,,,
JVASP-90162,YbAlCu,-0.43026,0.0,na,0.0,,,,,
JVASP-75700,GaAsIr2,0.31264,0.0,na,0.6536,,,,,
JVASP-75584,BeTlAs,0.36297,0.248,na,0.3772,,,,,
JVASP-73796,YZrBe2,0.05279,0.0,na,0.1969,,,,,
JVASP-90847,SrZnAsF,-2.01391,0.709,1.65,0.0,,,,,
JVASP-86713,KNaB2H8,-0.40101,6.347,na,0.0105,,,,,
JVASP-18466,Ag3O,-0.13304,0.0,0.106,0.0,,,,,
JVASP-75473,Tc2MoAs,0.25394,0.0,na,0.3796,,,,,
JVASP-68622,Be2CdP,0.44781,0.0,na,0.5794,,,,,
JVASP-68150,BeNiSe2,-0.1506,0.0,na,0.464,,,,,
JVASP-67160,BeCuRe,0.17593,0.0,na,0.3551,,,,,
JVASP-68002,K2BeFe,1.12695,0.0,0.0,1.2326,,,,,
JVASP-75732,CrSi2As,0.61842,0.0,0.0,0.7758,,,,,
JVASP-73927,BeNb2In,0.22025,0.0,0.0,0.3159,,,,,
JVASP-75513,BeAsBr,0.63039,0.0,na,1.1719,,,,,
JVASP-85837,SiNi2,-0.47403,0.0,na,0.0,,,,,
JVASP-48715,Li2CoSiO4,-2.19316,0.29,na,0.0919,,,,,
JVASP-68816,MnBe2Ni,-0.24677,0.0,na,0.0752,,,,,
JVASP-68514,TiBe2Te,0.21163,0.0,0.0,0.6652,,,,,
JVASP-75767,MgAsAu,-0.41208,0.0,na,0.0451,,,,,
JVASP-50770,AgGeO3,-1.04398,0.0,na,0.1121,,,,,
JVASP-68449,TaBeCl,-0.01957,0.0,0.0,0.7985,,,,,
JVASP-68572,Sr2BeSn,0.06871,0.0,na,0.6128,,,,,
JVASP-68061,BeZn2Ir,-0.17972,0.0,na,0.12,,,,,
JVASP-67561,LiBeSi2,0.24488,0.0,0.0,0.3438,,,,,
JVASP-85641,BaGe12Pt4,-0.37208,0.0,na,0.0051,,,,,
JVASP-85913,LiBIr,-0.5202,0.0,na,0.0001,,,,,
JVASP-67251,HfBeSi,-0.02524,0.0,0.0,0.5862,,,,,
JVASP-48483,Li2Ni3TeO8,-1.29725,0.0,na,0.012,,,,,
JVASP-75805,HfAsCl,0.00547,0.0,na,1.3104,,,,,
JVASP-67682,NaScBe,0.32574,0.0,0.0,0.4135,,,,,
JVASP-74023,BeGaW2,-0.07578,0.0,0.0,0.2393,,,,,
JVASP-67012,SrTaBe,0.58608,0.0,na,0.72,,,,,
JVASP-75585,HfReAs,0.47696,0.0,0.0,1.1481,,,,,
JVASP-68397,Be2CrCl,0.31865,0.0,na,0.9961,,,,,
JVASP-67501,TiBeV,0.02792,0.0,na,0.1431,,,,,
JVASP-86659,TaBe12,-0.13381,0.0,na,0.0507,,,,,
JVASP-91595,AlW2C,-0.25125,0.0,na,0.137,,,,,
JVASP-22627,KCrO2,-1.70728,0.0,na,0.2784,,,,,
JVASP-67764,NaBeP2,0.00621,0.0,na,0.3304,,,,,
JVASP-22712,Li2VF6,-3.04943,3.636,3.616,0.0549,,,,,
JVASP-50351,Na3AsO4,-1.82123,3.435,6.206,0.0,,,,,
JVASP-73801,SrBe2Te,0.19236,0.0,na,1.1199,,,,,
JVASP-75701,Re2MoAs,0.42461,0.0,na,0.5439,,,,,
JVASP-48973,FeO2F,-1.23998,0.0,na,0.2067,,,,,
JVASP-74095,BeCrTc2,0.00356,0.0,na,0.0857,,,,,
JVASP-75514,NiAsPb,0.08014,0.0,na,0.2525,,,,,
JVASP-86491,LaSi2Ru2,-0.8388,0.0,na,0.0,,,,,
JVASP-42269,LiFeF3,-2.4027,0.151,na,0.0827,,,,,
JVASP-75733,NaV2As,0.40045,0.0,0.0,0.8377,,,,,
JVASP-68685,LiBe2Sb,0.30856,0.0,0.0,0.5574,,,,,
JVASP-75477,SiGeAs,0.5892,0.0,na,0.6327,,,,,
JVASP-89950,Er6CoTe2,-0.68299,0.0,na,0.0,,,,,
JVASP-86086,RbIn6Au4,-0.28608,0.0,na,0.0,,,,,
JVASP-87997,BaGe2Ru2,-0.47624,0.0,na,0.0,,,,,
JVASP-73300,YBe2Ru,-0.06341,0.0,na,0.271,,,,,
JVASP-67723,BeGaHg,0.48822,0.0,na,0.4882,,,,,
JVASP-88791,BaCuTeF,-2.02624,1.064,1.737,0.0,,,,,
JVASP-88311,Na2PHO4,-2.11534,5.143,na,0.0,,,,,
JVASP-75768,Zn2AsOs,0.43466,0.0,na,0.5065,,,,,
JVASP-68625,BePbSe2,0.29265,0.0,na,1.0556,,,,,
JVASP-67161,BeNbTe,0.4333,0.0,0.0,0.8058,,,,,
JVASP-67883,BeP2Ir,0.31259,0.0,0.0,0.8858,,,,,
JVASP-74029,BeInTc2,0.01749,0.0,na,0.1009,,,,,
JVASP-75806,ReSnAs,0.58148,0.0,na,0.6285,,,,,
JVASP-67839,MgBeMo2,0.31103,0.0,na,0.4215,,,,,
JVASP-3498,CdIn2Se4,-0.56126,0.862,2.161,0.0,,,,,
JVASP-91783,ThAl3,-0.41956,0.0,na,0.0,,,,,
JVASP-67014,SrTiBe2,0.48311,0.0,na,0.6559,,,,,
JVASP-90680,LiTaF6,-3.36957,6.303,na,0.0,,,,,
JVASP-90575,MgTi,0.14953,0.0,0.0,0.1495,,,,,
JVASP-87890,Tm3Sb,-0.54402,0.0,na,0.0276,,,,,
JVASP-75586,SbAsRu,0.01037,0.0,na,0.2836,,,,,
JVASP-68204,Mn2BeCo,0.00752,0.0,na,0.1655,,,,,
JVASP-75702,AsRu2W,0.22694,0.0,na,0.5265,,,,,
JVASP-66942,BeNbPt,-0.49537,0.0,0.0,0.0583,,,,,
JVASP-73824,ZrBe2Cl,-0.18995,0.0,na,0.6188,,,,,
JVASP-47537,Li2TiCoO4,-2.29524,0.0,na,0.113,,,,,
JVASP-75659,NaMnAs,0.10592,0.0,na,0.4158,,,,,
JVASP-12025,CoI2,0.01733,0.0,0.028,0.0212,,,,,
JVASP-86954,TbNaO2,-3.02171,4.336,na,0.0,,,,,
JVASP-63406,Li3BN2,-1.00372,3.423,na,0.0026,,,,,
JVASP-15080,ScSi2,-0.31425,0.0,0.0,0.2323,,,,,
JVASP-67502,Be2VCo,-0.15533,0.0,na,0.1192,,,,,
JVASP-92188,Mg3BiO4,-1.95091,0.0,na,0.6091,,,,,
JVASP-68573,BeOsPb2,0.29517,0.0,na,0.2952,,,,,
JVASP-75515,MgAsP,0.01716,0.0,na,0.4762,,,,,
JVASP-68398,Be2OsCl,0.02241,0.0,na,0.5821,,,,,
JVASP-90528,V2NiO6,-2.03519,0.605,na,0.0679,,,,,
JVASP-75547,NbGeAs,0.52152,0.0,na,0.952,,,,,
JVASP-90333,Ba2CoAg2Se2O2,-1.34735,0.0,na,0.0966,,,,,
JVASP-91694,NaTl,-0.07381,0.0,na,0.0616,,,,,
JVASP-86142,YbGeIr,-0.85084,0.0,na,0.0,,,,,
JVASP-3591,K2SeBr6,-0.95156,1.528,2.161,0.0,,,,,
JVASP-67311,HfBe2Fe,0.04121,0.0,0.0,0.3512,,,,,
JVASP-67098,BeGaW,0.17012,0.0,na,0.4046,,,,,
JVASP-67411,YTaBe2,0.09687,0.0,na,0.2903,,,,,
JVASP-67800,BeGa4Tc,0.4546,0.0,0.004,0.55,,,,,
JVASP-68065,BeFeIr2,-0.17309,0.0,na,0.0211,,,,,
JVASP-75734,ZnAsPd2,-0.1592,0.0,na,0.2681,,,,,
JVASP-66852,CaBeGe,0.01018,0.0,0.0,0.5211,,,,,
JVASP-74099,BeInRu2,0.06341,0.0,na,0.2391,,,,,
JVASP-68749,Be2Ni2Ge,0.11263,0.0,na,0.4866,,,,,
JVASP-87155,Be13Sb,0.15919,0.0,na,0.1592,,,,,
JVASP-67162,SrBeCl,-0.42888,0.0,0.0,0.9126,,,,,
JVASP-86267,EuCl3,-2.39603,4.314,na,0.0,,,,,
JVASP-87026,AsPd2,-0.31428,0.0,na,0.0,,,,,
JVASP-14560,YbIn,-0.56589,0.0,na,0.0058,,,,,
JVASP-15741,CeAl2Ge2,-0.45061,0.0,na,0.0003,,,,,
JVASP-88465,AsS3N2F6,-1.12871,0.438,na,0.111,,,,,
JVASP-73310,TiBe2Bi,0.46283,0.0,0.0,0.6532,,,,,
JVASP-68004,BeGa2Bi,0.34586,0.0,na,0.3459,,,,,
JVASP-75617,Nb2FeAs,0.17648,0.0,na,0.5646,,,,,
JVASP-67636,BeAgW,0.13168,0.0,0.0,0.3661,,,,,
JVASP-89884,Na2P2PdO7,-2.03777,1.586,na,0.002,,,,,
JVASP-67017,CaBeSb,-0.04732,0.0,na,0.5596,,,,,
JVASP-68882,Be2MoRh,-0.27697,0.0,na,0.133,,,,,
JVASP-91932,TbH3,-0.65614,0.0,1.002,0.0098,,,,,
JVASP-72730,KTiBe2,1.11431,0.0,na,1.2893,,,,,
JVASP-3687,MgH2,-0.29675,4.085,5.806,0.0,,,,,
JVASP-50977,Li2CuBiO4,-1.36467,0.0,na,0.1044,,,,,
JVASP-67510,BeCoBr,0.50616,0.0,na,1.1479,,,,,
JVASP-68260,BeFeRu2,0.03186,0.0,na,0.1677,,,,,
JVASP-91513,MgSiH2O4,-2.1466,5.42,6.854,0.127,,,,,
JVASP-85352,NaMoF6,-2.72226,0.0,4.025,0.0145,,,,,
JVASP-18700,Dy2Tl,-0.26762,0.0,na,0.013,,,,,
JVASP-15782,CeZn3Cu2,-0.26536,0.0,na,0.0,,,,,
JVASP-75840,CdAsRh,0.47482,0.0,na,0.7616,,,,,
JVASP-75549,AsRu2Pt,0.42568,0.0,na,0.6065,,,,,
JVASP-73833,Be2CoPt,-0.34001,0.0,na,0.2477,,,,,
JVASP-67724,BeZnNi4,0.08912,0.0,na,0.33,,,,,
JVASP-68328,YMn2Be2,0.01417,0.0,na,0.1604,,,,,
JVASP-68399,MnBeTe2,0.40285,0.0,na,0.6848,,,,,
JVASP-75516,Zn2FeAs,0.3218,0.0,na,0.4362,,,,,
JVASP-1729,CdCN2,0.03745,2.341,3.928,0.0485,,,,,
JVASP-86192,ZrIr,-0.9663,0.0,na,0.0,,,,,
JVASP-67599,ZrBeMo,0.14129,0.0,na,0.3233,,,,,
JVASP-86891,Tb2Al4NiGe2,-0.6621,0.0,na,0.0,,,,,
JVASP-20064,LaSb,-1.32737,0.0,0.059,0.0,,,,,
JVASP-67939,BeGa2Co,-0.03435,0.0,na,0.2118,,,,,
JVASP-90108,YSiAg,-0.61594,0.0,na,0.0,,,,,
JVASP-88689,AuN5O14,-0.18028,1.722,na,0.0,,,,,
JVASP-85980,Ce2O3,-3.53987,0.0,na,0.0094,,,,,
JVASP-75735,AsRh2W,-0.04893,0.0,na,0.3756,,,,,
JVASP-91734,Na2MgPb,-0.20428,0.0,na,0.0,,,,,
JVASP-74102,BeCrRe2,0.02528,0.0,na,0.1597,,,,,
JVASP-85428,EuSb2,-0.75802,0.0,na,0.0,,,,,
JVASP-90224,CeTi2O6,-3.38472,2.187,na,0.0192,,,,,
JVASP-73332,Be2ZnCr,0.17818,0.0,na,0.3352,,,,,
JVASP-85519,LaHO2,-2.74995,4.082,4.331,0.0,,,,,
JVASP-67415,TiBe2Pt,-0.40063,0.0,na,0.2347,,,,,
JVASP-73929,BeCo2Cl,0.1826,0.0,na,0.8256,,,,,
JVASP-87091,K3NaSe2O8,-1.50148,3.802,5.525,0.0,,,,,
JVASP-67253,BeGaP,0.33866,0.0,na,0.626,,,,,
JVASP-68750,BeCoNi,-0.114,0.0,na,0.2015,,,,,
JVASP-75517,NaReAs,1.6843,0.0,na,1.9865,,,,,
JVASP-92240,NaBiS2,-0.84141,1.168,na,0.0336,,,,,
JVASP-15701,ZnRh,-0.36655,0.0,na,0.0,,,,,
JVASP-68153,BeSi2Ni,0.10859,0.0,na,0.3488,,,,,
JVASP-68264,BeReRu2,0.1121,0.0,na,0.296,,,,,
JVASP-90618,LuNiGe2,-0.60934,0.0,na,0.0583,,,,,
JVASP-67801,BeRe2Mo,0.0902,0.0,0.0,0.2246,,,,,
JVASP-68886,CaBePb2,0.11911,0.0,0.0,0.4744,,,,,
JVASP-75587,TaTiAs,0.49527,0.0,na,1.1203,,,,,
JVASP-67563,BeSiTe,0.43716,0.0,0.0,0.7208,,,,,
JVASP-91885,SrMg6Mo,0.19045,0.0,na,0.2507,,,,,
JVASP-66944,MgBe2Cu,0.08303,0.0,na,0.2257,,,,,
JVASP-68515,ScBeSe2,-0.59451,0.0,0.0,0.7418,,,,,
JVASP-75550,SnAsRh,-0.23796,0.0,na,0.1883,,,,,
JVASP-68626,Sr2BeBi,-0.04928,0.0,na,0.6134,,,,,
JVASP-75478,NaAsOs2,0.65681,0.0,na,0.8835,,,,,
JVASP-3342,Ga2HgTe4,-0.22848,0.596,1.514,0.0,,,,,
JVASP-68817,HfBeSe2,-0.16917,0.0,0.0,0.9325,,,,,
JVASP-67637,BeCd4In,0.43506,0.0,na,0.4426,,,,,
JVASP-67101,MnBe2Tc,0.05509,0.0,na,0.2314,,,,,
JVASP-85914,Ba2SnO4,-2.55837,2.647,3.768,0.0,,,,,
JVASP-75769,TaAsRh2,-0.14869,0.0,na,0.4122,,,,,
JVASP-67683,NaBeBi,0.33071,0.0,0.0,0.5638,,,,,
JVASP-85768,SrIn,-0.49984,0.0,na,0.0213,,,,,
JVASP-18581,ErAg2,-0.3734,0.0,0.0,0.0,,,,,
JVASP-68066,LaBeP,-1.02623,0.0,0.0,0.1192,,,,,
JVASP-75807,AsPW2,0.37355,0.0,na,0.7205,,,,,
JVASP-14856,YRh,-0.92117,0.0,na,0.0,,,,,
JVASP-91984,LiZnO2,-1.47954,0.0,na,0.1292,,,,,
JVASP-43987,Mn3OF5,-2.29626,0.0,0.0,0.0,,,,,
JVASP-91835,ErCd2Cu,-0.18946,0.0,na,0.107,,,,,
JVASP-75660,CoAsPt2,0.14688,0.0,na,0.3705,,,,,
JVASP-68452,BeCu2Br,0.51804,0.0,0.0,0.9462,,,,,
JVASP-68686,MgBe2V,0.18377,0.0,na,0.3355,,,,,
JVASP-75703,AsIr2Pt,0.39475,0.0,na,0.5756,,,,,
JVASP-75885,ZnRe2As,0.4745,0.0,0.0,0.5433,,,,,
JVASP-67513,BeCdPb,0.44734,0.0,0.0,0.4506,,,,,
JVASP-67888,BeV2Hg,0.47966,0.0,0.0,0.5555,,,,,
JVASP-75619,Ta2MnAs,0.29527,0.0,na,0.6811,,,,,
JVASP-68205,MgBeSi2,0.43656,0.0,na,0.5184,,,,,
JVASP-74105,HfBeRe2,-0.11721,0.0,na,0.2564,,,,,
JVASP-75518,MnAsPd2,-0.09825,0.0,na,0.1439,,,,,
JVASP-68574,Na2MnBe,0.41901,0.0,na,0.5133,,,,,
JVASP-73930,BeHgW2,0.24919,0.0,na,0.5642,,,,,
JVASP-67022,MgBeGa,0.24711,0.0,0.0,0.3411,,,,,
JVASP-67766,BeSnSb,0.41556,0.0,na,0.4225,,,,,
JVASP-42764,Mn3OF5,-2.29647,0.0,0.0,0.0,,,,,
JVASP-73349,Be2PRu,-0.16355,0.0,na,0.2312,,,,,
JVASP-22676,HCl,-0.45408,5.815,7.576,0.0,,,,,
JVASP-88000,RbTaO3,-2.82716,3.598,na,0.0091,,,,,
JVASP-68330,MgBeOs,0.23721,0.0,na,0.2427,,,,,
JVASP-75842,Nb2CrAs,0.16203,0.0,na,0.4974,,,,,
JVASP-68401,Be2MoPd,-0.22158,0.0,na,0.169,,,,,
JVASP-67163,Be2CrBr,0.5775,0.0,0.0,1.0961,,,,,
JVASP-74031,BeCdCu2,0.09498,0.0,0.0,0.1521,,,,,
JVASP-91554,TmAgS2,-1.42296,0.932,2.007,0.0004,,,,,
JVASP-90037,HfGeRu,-0.70979,0.0,na,0.0,,,,,
JVASP-3771,SnI2,-0.52917,1.785,2.216,0.0,,,,,
JVASP-89018,Lu2Si2O7,-3.46985,5.535,na,0.0012,,,,,
JVASP-90848,Ni3Sn,-0.15894,0.0,na,0.0061,,,,,
JVASP-86823,ErRu2,-0.3873,0.0,na,0.0,,,,,
JVASP-45016,LiFeSnO4,-1.71964,0.0,na,0.0718,,,,,
JVASP-48431,NaNi2O3,-1.10257,0.0,0.0,0.0554,,,,,
JVASP-90803,MgSiSb2,-0.06373,0.836,1.409,0.117,,,,,
JVASP-85839,DySi,-0.80587,0.0,na,0.0,,,,,