jid,formula,formation_energy_per_atom,optb88vdw_bandgap,mbj_bandgap,ehull,spacegroup_number,natoms,volume,bulk_modulus_kv,shear_modulus_gv
JVASP-90572,MgZr3,0.01353,0.0,na,0.0135,,,,,
JVASP-75606,Tc2AsPt,0.40065,0.0,na,0.7257,,,,,
JVASP-67077,BeGePd,-0.14323,0.0,na,0.2303,,,,,
JVASP-86311,ZrTe5,-0.4848,0.014,na,0.0,,,,,
JVASP-68614,BeNbSe2,0.1975,0.0,na,1.0452,,,,,
JVASP-68867,Sr2TiBe2,0.68289,0.0,na,0.8211,,,,,
JVASP-68558,CaBeTe2,-0.31478,0.0,na,0.7884,,,,,
JVASP-67758,BePW2,-0.28636,0.0,na,0.1009,,,,,
JVASP-67988,Na2BeGe,0.1666,0.203,0.746,0.2677,,,,,
JVASP-91551,DyNiSb2,-0.68109,0.0,na,0.0294,,,,,
JVASP-75571,V2AsSe,0.30597,0.0,na,0.8928,,,,,
JVASP-88682,Rb3NaPbO4,-1.43119,1.693,na,0.0,,,,,
JVASP-18837,MnInPd2,-0.31454,0.0,0.0,0.0571,,,,,
JVASP-68320,Sc2BeGe,-0.25898,0.0,0.0,0.3844,,,,,
JVASP-66997,Be2NbV,0.05434,0.0,na,0.2429,,,,,
JVASP-68053,BeTc2Os,0.14609,0.0,na,0.2816,,,,,
JVASP-88458,FeHgC4S4N4,0.19951,0.0,na,0.3445,,,,,
JVASP-62578,HfCo3B2,-0.5887,0.0,0.0,0.0,,,,,
JVASP-63282,Yb4As3,-1.26717,0.0,na,0.0049,,,,,
JVASP-75497,AsRu2Se,0.69389,0.0,na,0.9953,,,,,
JVASP-18874,AgTe2Au,0.15169,0.0,na,0.2163,,,,,
JVASP-68135,MgBeP,-0.36137,0.0,na,0.2176,,,,,
JVASP-67295,Be2SiPt,-0.14665,0.0,na,0.3425,,,,,
JVASP-75461,InNi2As,0.32321,0.0,na,0.5427,,,,,
JVASP-75538,TeAsOs,0.21516,0.0,0.0,0.3389,,,,,
JVASP-67236,Be2CuW,-0.07139,0.0,na,0.177,,,,,
JVASP-66931,CaBePt,-0.55236,0.0,na,0.2357,,,,,
JVASP-90303,Te2W3S4,-0.68484,0.194,na,0.0415,,,,,
JVASP-13824,Ti2SnC,-0.75623,0.0,na,0.0,,,,,
JVASP-86654,Zr2Al3C4,-0.60186,0.0,na,0.0011,,,,,
JVASP-90800,DyNiGe2,-0.69413,0.0,na,0.0,,,,,
JVASP-67929,MgBeTe2,-0.36183,0.0,na,0.3256,,,,,
JVASP-68196,BeV2Se,0.09982,0.0,na,0.565,,,,,
JVASP-68386,BeIn2Ge,0.49153,0.0,0.0,0.4942,,,,,
JVASP-68796,LiBeZn,0.14012,0.0,na,0.3088,,,,,
JVASP-90844,LuCuSb2,-0.50704,0.0,na,0.0248,,,,,
JVASP-67719,Be2HgCl,0.66882,0.0,na,1.2285,,,,,
JVASP-67833,BeInW2,0.07803,0.0,0.0,0.3944,,,,,
JVASP-68868,BeTl2Te,0.17031,0.0,na,0.3818,,,,,
JVASP-75572,MgAsRh2,-0.11369,0.0,na,0.4081,,,,,
JVASP-67144,BeCdFe,0.27633,0.0,na,0.4147,,,,,
JVASP-67794,ScBeRh4,-0.18087,0.0,na,0.4579,,,,,
JVASP-67673,Be2HgPd,0.08063,0.0,0.0,0.4029,,,,,
JVASP-87881,Y2HfS5,-2.08103,1.247,na,0.0,,,,,
JVASP-67079,BeCrGe,0.45644,0.0,na,0.582,,,,,
JVASP-75607,CdB2As,1.72759,0.0,na,1.8505,,,,,
JVASP-86768,ZrTe,-0.89023,0.0,na,0.0294,,,,,
JVASP-74069,KBePd2,-0.06162,0.0,0.0,0.3097,,,,,
JVASP-68615,BeRhPb,0.21625,0.0,na,0.6157,,,,,
JVASP-43660,NaNiPO4,-1.8815,0.614,na,0.01,,,,,
JVASP-68561,NaBePd,0.08752,0.0,na,0.4651,,,,,
JVASP-73139,Be2NbFe,0.01209,0.0,0.0,0.2585,,,,,
JVASP-91881,Mg7Mn,0.12112,0.0,na,0.1211,,,,,
JVASP-90750,HoNiSb2,-0.66801,0.0,na,0.038,,,,,
JVASP-75499,BiBAs,1.10296,0.0,na,1.1689,,,,,
JVASP-68928,Be2NbTc,-0.08063,0.0,na,0.2056,,,,,
JVASP-75690,AsP2Pt,0.45287,0.0,na,0.967,,,,,
JVASP-19832,CoTe,-0.03209,0.0,0.0,0.1243,,,,,
JVASP-67237,Be2ReSb,0.25035,0.0,na,0.5191,,,,,
JVASP-87084,CeSiRu,-0.6955,0.0,0.0,0.0161,,,,,
JVASP-86487,NdSi2Au2,-0.5753,0.0,na,0.0,,,,,
JVASP-90423,K2SnN6,2.0304,0.0,na,2.229,,,,,
JVASP-89946,Dy6CoTe2,-0.69148,0.0,na,0.0,,,,,
JVASP-86420,Sc2FeSi2,-0.76577,0.0,0.0,0.0,,,,,
JVASP-90615,SnI3,-0.21607,0.0,0.0,0.1808,,,,,
JVASP-52579,Al2O3,-3.21513,4.35,na,0.0982,,,,,
JVASP-53591,Cr2SbTe,0.24637,0.0,na,0.3157,,,,,
JVASP-86082,CeP2,-1.07708,0.0,0.0,0.0,,,,,
JVASP-68323,NaYBe2,0.45284,0.0,na,0.4559,,,,,
JVASP-14116,YF3,-4.36889,7.874,8.494,0.0,,,,,
JVASP-42760,Na2VO3,-2.27806,0.691,na,0.0,,,,,
JVASP-66998,ZrBeZn,0.26327,0.0,na,0.5364,,,,,
JVASP-67557,BeHgSe,-0.03715,0.0,0.745,0.5831,,,,,
JVASP-42344,Mn8O13F3,-1.90853,0.0,na,0.0,,,,,
JVASP-22711,Na3VO4,-2.30627,3.782,4.288,0.0,,,,,
JVASP-66754,CaTiBe2,0.39083,0.0,na,0.5678,,,,,
JVASP-12151,NiH2O2,-0.81241,0.616,na,0.0899,,,,,
JVASP-88787,KSbO2,-1.68713,1.903,3.273,0.0,,,,,
JVASP-91828,Mg6CuNi,-0.05352,0.0,na,0.1021,,,,,
JVASP-86137,FeAg3C6N6,0.39106,0.0,0.029,0.4344,,,,,
JVASP-87138,SrGeTeO6,-1.92829,3.052,4.419,0.0,,,,,
JVASP-62694,TbMnB4,-0.64612,0.0,na,0.0043,,,,,
JVASP-18938,Tb2C,-0.31929,0.0,0.0,0.0,,,,,
JVASP-75573,KBAs4,0.66527,0.0,na,0.876,,,,,
JVASP-75650,AsIr2Rh,0.35493,0.0,0.0,0.5801,,,,,
JVASP-68676,BeCrSn2,0.53017,0.0,0.0,0.6087,,,,,
JVASP-67630,ZrBeZn,-0.08501,0.0,na,0.1882,,,,,
JVASP-67991,CaBeTl2,0.17181,0.0,na,0.4519,,,,,
JVASP-67145,MnBeTc,0.14471,0.0,na,0.2662,,,,,
JVASP-75464,GaCu2As,0.24951,0.0,na,0.4168,,,,,
JVASP-73144,Be2CoRu,-0.22183,0.0,na,0.0711,,,,,
JVASP-67299,BeHgPb,0.4877,0.0,na,0.4877,,,,,
JVASP-68800,Be2NiGe,-0.02914,0.0,na,0.2285,,,,,
JVASP-75500,TaAsSe,0.5632,0.0,0.0,1.1979,,,,,
JVASP-68742,BeTl2Fe,0.77843,0.0,na,0.8797,,,,,
JVASP-68436,Sr2BeGa,0.22528,0.0,na,0.467,,,,,
JVASP-88299,KCuC2N2,-0.16437,2.79,na,0.0962,,,,,
JVASP-50348,NaSmO2,-2.90224,4.276,5.736,0.0272,,,,,
JVASP-91731,ScF3,-4.11455,6.508,7.348,0.0,,,,,
JVASP-14855,ReO3,-1.72077,0.0,na,0.0108,,,,,
JVASP-66932,TiBe2Ir,-0.36382,0.0,0.0,0.2009,,,,,
JVASP-91780,NaZn4As3,-0.27064,0.0,na,0.0001,,,,,
JVASP-73908,CaMn2Be,0.27032,0.0,na,0.3627,,,,,
JVASP-14707,DyNi2,-0.50563,0.0,0.0,0.0,,,,,
JVASP-67393,BeNbFe,0.28337,0.0,0.0,0.496,,,,,
JVASP-75691,Ta2CrAs,0.3062,0.0,na,0.6178,,,,,
JVASP-68498,BeTcBr,0.53212,0.0,0.0,1.1213,,,,,
JVASP-73645,CaBe2Ge,0.30604,0.0,na,0.6974,,,,,
JVASP-74010,CaBeFe2,0.31555,0.0,na,0.422,,,,,
JVASP-63283,Y2Ni3B6,-0.59271,0.0,na,0.0,,,,,
JVASP-92182,Rb3NaH4,-0.22493,1.935,4.283,0.0668,,,,,
JVASP-86887,SrLi4P2,-0.93984,1.035,1.614,0.0,,,,,
JVASP-68929,BeNbRh,-0.05994,0.0,0.0,0.3589,,,,,
JVASP-66756,Be2VRe,0.06682,0.0,na,0.3755,,,,,
JVASP-67473,BeInW,0.43056,0.0,na,0.6668,,,,,
JVASP-67877,BeCrFe2,-0.00694,0.0,0.0,0.1476,,,,,
JVASP-85968,K3Pd2O4,-1.20513,0.013,na,0.0,,,,,
JVASP-1417,SrO2,-2.13869,3.101,4.249,0.0183,,,,,
JVASP-43300,Li2Ti3FeO8,-2.76423,0.589,na,0.0363,,,,,
JVASP-87022,PuF3,-3.91371,0.07,0.0,0.0,,,,,
JVASP-68054,K2BeCo,1.06478,0.0,0.001,1.2271,,,,,
JVASP-75651,VAsW2,0.05488,0.0,na,0.5688,,,,,
JVASP-62875,CaNi12B6,-0.34475,0.0,na,0.0,,,,,
JVASP-89762,LiMg4H13Os2,-0.36228,3.324,na,0.0034,,,,,
JVASP-86259,TaNi3,-0.37715,0.0,0.0,0.0015,,,,,
JVASP-87992,Te4MoBr,-0.22874,0.811,na,0.0006,,,,,
JVASP-85635,Fe13Co3,-0.00878,0.0,na,0.0125,,,,,
JVASP-89184,KLi2As,-0.67439,0.891,na,0.0001,,,,,
JVASP-91690,SiPt3,-0.39864,0.0,na,0.0755,,,,,
JVASP-73206,SrBe2Cl,0.22607,0.0,na,1.2532,,,,,
JVASP-66844,MgBeNi,-0.17113,0.0,0.0,0.1405,,,,,
JVASP-14559,TbO2,-2.97935,0.0,na,0.1923,,,,,
JVASP-75501,NiAsPt2,0.05209,0.0,na,0.2807,,,,,
JVASP-68250,BeGa2Bi,0.45662,0.0,na,0.4566,,,,,
JVASP-75574,Tc2AsRh,0.29523,0.0,0.0,0.5531,,,,,
JVASP-67593,BeCuSi,0.27606,0.0,na,0.3505,,,,,
JVASP-68198,K2BeGa,0.47957,0.0,0.0,0.5745,,,,,
JVASP-68136,BeSi2Hg,0.87274,0.0,na,0.8751,,,,,
JVASP-1276,SrS,-2.36365,2.54,3.648,0.0,,,,,
JVASP-90520,Ce2UO6,-3.71277,0.0,na,0.0343,,,,,
JVASP-88076,KTaB2O6,-2.74398,3.707,na,0.0,,,,,
JVASP-67930,CaBeZn2,0.05145,0.0,na,0.3511,,,,,
JVASP-19925,LuIn3,-0.32336,0.0,na,0.0,,,,,
JVASP-3684,K2PtCl6,-1.28971,1.646,2.168,0.0,,,,,
JVASP-90678,LiErSn2,-0.40745,0.0,na,0.1461,,,,,
JVASP-86338,DySi,-0.80587,0.0,na,0.0,,,,,
JVASP-62697,PrBRh3,-0.67505,0.0,na,0.0002,,,,,
JVASP-73691,Be2CrGa,0.26501,0.0,na,0.4308,,,,,
JVASP-48967,LiNi3O3F,-1.21163,0.0,na,0.1578,,,,,
JVASP-67300,BeFeGe,0.30496,0.0,na,0.4733,,,,,
JVASP-68440,BeGaTc,0.21642,0.0,na,0.3902,,,,,
JVASP-75539,HfV2As,0.00187,0.0,0.0,0.5105,,,,,
JVASP-1969,Ca2BrN,-1.63368,2.393,na,0.0,,,,,
JVASP-68802,BeMoCl,0.2089,0.0,0.0,1.0288,,,,,
JVASP-68679,Be2CdCu,0.16311,0.0,na,0.2748,,,,,
JVASP-67004,Be2InCu,0.31728,0.0,na,0.4278,,,,,
JVASP-66935,TiBe2Tl,0.49532,0.0,0.0,0.6681,,,,,
JVASP-48021,Mn6OF11,-2.35405,0.0,0.0,0.0,,,,,
JVASP-90220,Ba2NO6,-1.23091,0.022,0.0,0.3897,,,,,
JVASP-86187,K2SnHgSe4,-0.73675,1.472,2.401,0.0,,,,,
JVASP-573,VTe2,-0.3029,0.0,0.0,0.011,,,,,
JVASP-63284,TbNi4Au,-0.42406,0.0,na,0.0001,,,,,
JVASP-90160,Na2TcF6,-2.63896,1.692,na,0.0,,,,,
JVASP-91980,V2CN,-0.82375,0.0,na,0.1079,,,,,
JVASP-75608,CrHgAs,0.38345,0.0,0.0,0.4789,,,,,
JVASP-52346,Li2CuSbO5,-1.50488,0.363,na,0.0731,,,,,
JVASP-86818,MnGaPt,-0.37378,0.0,0.0,0.0176,,,,,
JVASP-73209,Be2ZnRu,0.00966,0.0,na,0.2795,,,,,
JVASP-85507,Si2H2O5,-2.22751,5.601,8.219,0.0386,,,,,
JVASP-75652,LaCoAs,-0.62169,0.0,na,0.4729,,,,,
JVASP-85697,Fe2CuAs2H2O10,-1.09165,0.328,na,0.0986,,,,,
JVASP-43984,Li2AlFeO4,-2.33256,1.419,na,0.053,,,,,
JVASP-53291,VGe3,0.27185,0.0,na,0.4115,,,,,
JVASP-86312,SrZn5,-0.251,0.0,na,0.0,,,,,
JVASP-68616,KLi2Be,0.55778,0.0,0.0,0.5604,,,,,
JVASP-67720,BeCdTe,0.22466,0.0,0.0,0.51,,,,,
JVASP-85420,CeNi2As2,-0.81597,0.0,na,0.0,,,,,
JVASP-68324,Zr2BeSe,-0.26147,0.0,na,0.5234,,,,,
JVASP-75575,VGaAs,0.5053,0.0,na,0.8598,,,,,
JVASP-12125,ZnWO4,-2.0483,0.615,na,0.0728,,,,,
JVASP-68387,NaBe2Ru,0.0245,0.0,0.0,0.2974,,,,,
JVASP-68869,Sc2BeSb,-0.29894,0.0,0.0,0.3457,,,,,
JVASP-68930,BeCoBi,0.36867,0.0,na,0.5794,,,,,
JVASP-90034,IN2O6,0.04617,0.0,na,0.2772,,,,,
JVASP-67082,BeGaRu,-0.22221,0.0,0.0,0.1298,,,,,
JVASP-92236,CuI,-0.15256,1.236,na,0.0,,,,,
JVASP-67759,BeTlCu,0.37237,0.0,na,0.4452,,,,,
JVASP-68503,Be2CuRh,-0.39554,0.0,na,0.0093,,,,,
JVASP-86544,Na2Si4Cu2O11,-2.2686,0.402,na,0.0647,,,,,
JVASP-91643,NdFeGe2,-0.51809,0.0,na,0.044,,,,,
JVASP-90424,SmClO2,-1.94709,0.0,na,0.5115,,,,,
JVASP-67795,CaBeTc2,0.34979,0.0,0.0,0.4361,,,,,
JVASP-74072,Ti2BeSb,-0.0436,0.0,0.0,0.3546,,,,,
JVASP-603,SiTe2,0.09425,0.0,0.0,0.0958,,,,,
JVASP-85763,CdCO3,1.40934,0.0,na,2.8374,,,,,
JVASP-75465,ZrVAs,0.10024,0.0,0.0,0.8857,,,,,
JVASP-75540,AsOsPt2,0.3659,0.0,na,0.5467,,,,,
JVASP-75502,Si2MoAs,0.57286,0.0,na,0.8252,,,,,
JVASP-75692,NaVAs,0.627,0.0,0.0,1.0937,,,,,
JVASP-86949,KCaCO3F,-2.58683,4.472,na,0.0043,,,,,
JVASP-67594,BeTc2Ge,-0.12776,0.0,na,0.0066,,,,,
JVASP-67238,MnBeGa,0.07134,0.0,na,0.257,,,,,
JVASP-48428,Co6O7F5,-1.39818,0.0,na,0.0191,,,,,
JVASP-67005,TiBe2Sn,0.19633,0.0,na,0.4613,,,,,
JVASP-68443,NaBe2Pt,-0.09238,0.0,na,0.3163,,,,,
JVASP-15816,ThSi2,-0.54015,0.0,na,0.0,,,,,
JVASP-75609,TlAsRu,0.41643,0.0,na,0.5905,,,,,
JVASP-73220,Be2PtW,-0.13996,0.0,na,0.3872,,,,,
JVASP-91929,SmFeAsO,-1.89419,0.0,na,0.0089,,,,,
JVASP-43576,Li2Fe3F8,-2.36014,0.106,na,0.0168,,,,,
JVASP-90573,MgZn3,-0.07592,0.0,na,0.0261,,,,,
JVASP-68804,LaBeSe2,-0.73292,0.0,na,0.8373,,,,,
JVASP-75577,HfFe2As,-0.01951,0.0,na,0.4856,,,,,
JVASP-67834,MgBeSb,0.38201,0.0,na,0.6214,,,,,
JVASP-67677,MnBeCr4,0.29139,0.0,0.0,0.3502,,,,,
JVASP-13887,Th3Si2,0.40374,0.0,na,0.9286,,,,,
JVASP-73920,BeMo2Br,0.32691,0.0,na,0.783,,,,,
JVASP-68681,Be2ZnTe,0.47795,0.0,na,0.7123,,,,,
JVASP-72493,BeTeBr,-0.32155,0.0,na,0.3539,,,,,
JVASP-67993,NaBeV2,0.89761,0.0,0.0,0.9765,,,,,
JVASP-68563,BeNiTe2,0.40658,0.0,na,0.7323,,,,,
JVASP-67394,BeGeW,0.31489,0.0,na,0.5493,,,,,
JVASP-86138,CaAgBi,-0.61158,0.029,na,0.0,,,,,
JVASP-75693,HfTcAs,0.26254,0.0,na,0.9336,,,,,
JVASP-67242,Be2CrRe,0.08301,0.0,na,0.3518,,,,,
JVASP-16050,YbLiO2,-2.38808,0.0,na,0.2315,,,,,
JVASP-89004,YGaO3,-2.95546,3.099,na,0.0,,,,,
JVASP-67631,BeSnPt,-0.18795,0.0,na,0.3262,,,,,
JVASP-68444,Sr2BeCl,-0.43022,0.0,na,0.5759,,,,,
JVASP-68389,Be2InP,0.32292,0.0,na,0.4533,,,,,
JVASP-91882,Mg7Zr,0.0565,0.0,na,0.0565,,,,,
JVASP-68506,TiBe2Cl,0.28009,0.0,na,1.0087,,,,,
JVASP-73235,ZrBeCr,0.58717,0.0,na,0.7084,,,,,
JVASP-67476,BeCuBr,0.41037,0.0,0.0,0.9812,,,,,
JVASP-62704,ErCo12B6,-0.34123,0.0,0.0,0.0,,,,,
JVASP-42629,Li3Ni4O8,-1.34463,0.0,na,0.0443,,,,,
JVASP-67595,BeNb4Ru,0.52258,0.0,na,0.7132,,,,,
JVASP-48906,Li2MnF6,-2.8105,2.241,na,0.024,,,,,
JVASP-86488,DyZrSb,-0.80069,0.0,0.0,0.0,,,,,
JVASP-90751,TbInPt2,-0.98813,0.0,na,0.0,,,,,
JVASP-85835,CuS2,-0.19824,0.0,na,0.0015,,,,,
JVASP-74012,MgBeRh2,-0.29302,0.0,0.0,0.2588,,,,,
JVASP-92183,BaZrP2,-1.00472,0.0,na,0.266,,,,,
JVASP-91593,ZnAg2SnS4,-0.411,0.155,1.413,0.004,,,,,
JVASP-85348,NpNiSn,-0.25166,0.0,na,0.0,,,,,
JVASP-85908,BAsO4,-1.73729,4.46,6.005,0.0033,,,,,
JVASP-73699,TaBeFe,0.24387,0.0,0.0,0.499,,,,,
JVASP-68251,CaBeNb2,0.59318,0.0,0.0,0.6917,,,,,
JVASP-86655,ScRu2,-0.40857,0.0,na,0.0,,,,,
JVASP-15392,HoCuSi,-0.66676,0.0,na,0.0,,,,,
JVASP-86083,LaNi2B2C,-0.49792,0.0,na,0.0,,,,,
JVASP-66757,BeZnMo,0.14763,0.0,0.0,0.3158,,,,,
JVASP-68199,BeGaSi2,0.5824,0.0,na,0.5848,,,,,
JVASP-15984,Mn2AlB2,-0.42592,0.0,0.0,0.0,,,,,
JVASP-2196,SnF4,-2.44524,3.159,5.266,0.0,,,,,
JVASP-15700,SrAl2Si2,-0.37455,0.0,na,0.0,,,,,
JVASP-66936,ScBeMo,0.38937,0.0,0.0,0.5366,,,,,
JVASP-67879,Na2BeIn,0.229,0.0,na,0.3304,,,,,
JVASP-67396,BeCoIr,-0.05217,0.0,na,0.2601,,,,,
JVASP-90801,LaCoC2,-0.37564,0.0,na,0.0,,,,,
JVASP-86421,EuMo6S8,-1.01308,0.0,na,0.0,,,,,
JVASP-68744,NaBe2Tc,0.20571,0.0,0.0,0.373,,,,,
JVASP-49848,HoTlO2,-2.58948,1.574,2.125,0.077,,,,,
JVASP-67931,Ti2BeMo,0.01438,0.0,0.0,0.1499,,,,,
JVASP-63377,BN,-0.87268,5.299,6.648,0.5162,,,,,
JVASP-68871,BeTe2Se,-0.03094,0.0,na,0.4342,,,,,
JVASP-90103,K2TcF6,-2.7298,1.602,na,0.0,,,,,
JVASP-67148,BeTcHg,0.53033,0.0,0.0,0.6398,,,,,
JVASP-73251,HfBe2Se,-0.06531,0.0,0.0,0.6698,,,,,
JVASP-68390,HfBe2Se,0.07829,0.0,na,0.8134,,,,,
JVASP-43808,Li2FeF4,-2.56544,0.0,0.0,0.1214,,,,,
JVASP-67679,TaBe2Sb,0.38202,0.0,na,0.6001,,,,,
JVASP-87882,ScSnPd,-0.84706,0.0,na,0.0058,,,,,
JVASP-42268,LiMnSiO4,-2.32926,0.5,na,0.0987,,,,,
JVASP-68617,ZrBe2Ir2,-0.69178,0.0,na,0.0,,,,,
JVASP-86769,Na6ZnSn2,-0.2206,0.0,na,0.0,,,,,
JVASP-75466,CoAsBr,1.24159,0.0,na,1.5585,,,,,
JVASP-74019,BeInP2,0.38852,0.0,na,0.5867,,,,,
JVASP-68139,Na2BeBi,0.19241,0.0,0.0,0.4989,,,,,
JVASP-42671,SrCaI4,-1.66482,3.786,4.694,0.0997,,,,,
JVASP-42351,V6O7F5,-2.6761,0.0,na,0.0394,,,,,
JVASP-75503,AsRuBr,1.39078,0.0,0.0,1.716,,,,,
JVASP-75653,Zn2AsW,0.44622,0.0,na,0.6543,,,,,
JVASP-67083,Be2GaCu,0.13397,0.0,na,0.2573,,,,,
JVASP-73703,Be2IrRu,-0.32036,0.0,na,0.0984,,,,,
JVASP-67301,MnBe2Se,0.25587,0.0,0.0,0.8092,,,,,
JVASP-86711,NaAgC2N2,-0.03804,2.49,3.3,0.2127,,,,,
JVASP-91552,K2CdSnSe4,-0.88601,1.664,2.663,0.0,,,,,
JVASP-85423,ZrIn2Br6,-1.17543,2.239,na,0.0,,,,,
JVASP-66845,Be2SiPt,-0.1465,0.0,0.0,0.3426,,,,,
JVASP-75541,TaAsRu2,0.19761,0.0,na,0.4934,,,,,
JVASP-90893,Na5LiN2,0.04722,0.0,na,0.2057,,,,,
JVASP-75611,V2GeAs,0.21796,0.0,na,0.5931,,,,,
JVASP-89947,YbSnIr,-0.74893,0.0,na,0.0,,,,,
JVASP-67881,BeRe2Ir,0.09021,0.0,na,0.2979,,,,,
JVASP-67009,BeVSn,0.36048,0.0,na,0.4774,,,,,
JVASP-67796,SrBeSb,-0.03496,0.0,0.0,0.5901,,,,,
JVASP-67835,BeInSi2,0.53846,0.0,na,0.5422,,,,,
JVASP-67558,BeCdCo2,0.30091,0.0,0.0,0.4643,,,,,
JVASP-68255,Na2LaBe,0.4316,0.0,na,0.4377,,,,,
JVASP-62882,Ni4B3,-0.23793,0.0,na,0.0,,,,,
JVASP-68201,CaBeSn,-0.3601,0.0,na,0.1375,,,,,
JVASP-91732,EuMnBi2,-0.2635,0.0,na,0.0,,,,,
JVASP-86819,CaTe,-1.73212,1.656,na,0.0512,,,,,
JVASP-42763,LiFeO2,-1.7646,0.0,0.0,0.0236,,,,,
JVASP-62711,DyB6,-0.41596,0.0,0.0,0.0456,,,,,
JVASP-68325,NaSc2Be,0.50033,0.0,0.0,0.5662,,,,,
JVASP-88461,Rb4CO4,-1.44259,2.414,4.792,0.2039,,,,,
JVASP-88303,Sr2CrClO4,-2.74596,0.0,na,0.0,,,,,
JVASP-68745,Be2NbMo,0.29329,0.0,na,0.5305,,,,,
JVASP-63383,Te2Au,-0.0634,0.0,na,0.0131,,,,,
JVASP-19926,USi2,-0.2209,0.0,0.0,0.044,,,,,
JVASP-43323,CoOF,-1.43212,0.0,na,0.0434,,,,,
JVASP-75694,GeAsP,0.59405,0.0,na,0.6275,,,,,
JVASP-87088,HgPd,0.05134,0.0,na,0.0829,,,,,
JVASP-91781,ErNiBC,-0.62517,0.0,na,0.0,,,,,
JVASP-66758,Be2CoPd,-0.21964,0.0,na,0.2185,,,,,
JVASP-89202,Hg2SeO3,-0.50686,2.142,na,0.0143,,,,,
JVASP-67760,SrBeV2,0.44364,0.0,0.0,0.5195,,,,,
JVASP-73709,Be2CrCu,0.08346,0.0,na,0.2405,,,,,
JVASP-75504,TlAsOs,0.72051,0.0,na,0.8164,,,,,
JVASP-75579,NaTcAs,1.22851,0.0,na,1.534,,,,,
JVASP-68058,BeV2Tc,-0.03822,0.0,0.0,0.2213,,,,,
JVASP-67680,YBeW4,0.19151,0.0,na,0.5871,,,,,
JVASP-67302,Be2WBr,0.53706,0.0,na,1.132,,,,,
JVASP-67721,BeZnP,0.3707,0.0,0.0,0.5432,,,,,
JVASP-75542,Li2NbAs,-0.05114,0.0,na,0.5765,,,,,
JVASP-90425,ScAlCO,-1.91668,1.267,na,0.0,,,,,
JVASP-91981,V2NO,-1.56159,0.0,na,0.1775,,,,,
JVASP-3135,TbSF,-3.2366,1.354,2.569,0.0,,,,,
JVASP-91644,NdAlH6,-0.36484,2.339,na,0.0,,,,,
JVASP-1387,Na2O,-1.41079,2.214,4.707,0.0195,,,,,
JVASP-68143,BeP2Cl,-0.13653,0.0,na,0.4662,,,,,
JVASP-75729,Ni2AsCl,0.63495,0.0,na,0.9983,,,,,
JVASP-90221,TbLiGe,-0.75517,0.0,na,0.0,,,,,
JVASP-68807,BeTl2Cr,0.80353,0.0,0.0,0.8821,,,,,
JVASP-3582,K2ReBr6,-1.03212,0.713,na,0.0,,,,,
JVASP-87141,RbCd13,-0.0784,0.0,na,0.0,,,,,
JVASP-85764,K2PbS2O8,-1.53417,2.816,5.102,0.2759,,,,,
JVASP-90322,Mo2WSe6,-0.66229,1.11,na,0.0,,,,,
JVASP-68391,Be2CrRh,-0.16329,0.0,0.0,0.2148,,,,,
JVASP-90035,SbCl6O2,-0.32106,0.0,na,0.1817,,,,,
JVASP-50349,LiTi4O8,-3.10946,0.0,2.889,0.0494,,,,,
JVASP-66846,HfBePt,-0.58424,0.0,na,0.2925,,,,,
JVASP-74073,BeCdCu2,0.09487,0.0,0.0,0.152,,,,,
JVASP-87993,Te6Br2O11,-1.02381,2.701,na,0.0,,,,,
JVASP-91830,KMg6W,0.31754,0.0,na,0.3882,,,,,
JVASP-86889,HoSiRu2C,-0.60504,0.0,na,0.0,,,,,
JVASP-73257,HfBe2Os,-0.25964,0.0,na,0.202,,,,,
JVASP-75695,ZrReAs,0.07833,0.0,na,0.8638,,,,,
JVASP-73922,BeGeOs2,0.051,0.0,na,0.0696,,,,,
JVASP-72530,ZrBe2Nb,-0.00231,0.0,0.0,0.1863,,,,,
JVASP-86139,RbAuI3,-0.6945,0.611,na,0.0002,,,,,
JVASP-67559,CaBe2In,0.37294,0.0,na,0.6897,,,,,
JVASP-68510,Be2NbTc2,-0.02142,0.0,na,0.2417,,,,,
JVASP-12171,MnCo2O6,-1.23507,0.0,na,0.0887,,,,,
JVASP-90616,LiPtF6,-1.80306,0.0,0.0,0.0,,,,,
JVASP-90845,SrMnSbF,-1.71189,0.0,0.0,0.1244,,,,,
JVASP-15005,PrRu2,-0.12274,0.0,na,0.0,,,,,
JVASP-73710,Be2GeW,0.1171,0.0,na,0.3296,,,,,
JVASP-68202,Ta2BeBr,0.34724,0.0,na,0.802,,,,,
JVASP-67996,Na2BeCu,0.46696,0.0,0.0,0.5277,,,,,
JVASP-75507,CuMo2As,0.38307,0.0,na,0.5162,,,,,
JVASP-67477,Be2VBr,0.35075,0.0,na,0.8654,,,,,
JVASP-91692,TmCuSb2,-0.54973,0.0,na,0.0077,,,,,
JVASP-74074,BeRe2Bi,0.39433,0.0,na,0.5287,,,,,
JVASP-75696,AsRuAu,0.86441,0.0,na,1.0385,,,,,
JVASP-67244,TaBeSn,0.3616,0.0,0.0,0.4955,,,,,
JVASP-89763,TlH6N3O12,-0.62431,2.038,na,0.0,,,,,
JVASP-68875,BeGaGe,0.33765,0.0,na,0.339,,,,,
JVASP-90574,Y3Mg,0.02553,0.0,na,0.0779,,,,,
JVASP-88683,H2O,-0.9908,5.82,8.655,0.0049,,,,,
JVASP-67085,SrBe2Zn,0.36105,0.0,na,0.5374,,,,,
JVASP-75468,AsIrW2,0.20192,0.0,na,0.681,,,,,
JVASP-72531,ZrBeTe,0.15326,0.0,na,0.8207,,,,,
JVASP-63388,HfAsRu,-0.72347,0.0,na,0.0047,,,,,
JVASP-86260,Pr3MnBi5,-0.55767,0.0,na,0.1157,,,,,
JVASP-67632,Li2BeCd,-0.01735,0.0,na,0.155,,,,,
JVASP-15740,NdB2Ru3,-0.39371,0.0,na,0.0,,,,,
JVASP-68446,Zr2BeGe,-0.27271,0.0,0.0,0.326,,,,,
JVASP-62718,CaB2C2,-0.28338,0.0,na,0.1625,,,,,
JVASP-88078,SiO2,-2.84297,5.627,na,0.0583,,,,,
JVASP-87024,NdNi4B,-0.44243,0.0,na,0.0,,,,,
JVASP-68682,TaBe2Ir2,-0.38627,0.0,0.0,0.1602,,,,,
JVASP-73720,Be2ReP,-0.10042,0.0,na,0.2088,,,,,
JVASP-75508,BeAsPt2,0.14385,0.0,na,0.5381,,,,,
JVASP-66937,YScBe2,0.00108,0.0,0.0,0.1266,,,,,
JVASP-67935,KBeNb2,1.28396,0.0,0.0,1.3804,,,,,
JVASP-68746,Be2NbNi,-0.2154,0.0,0.0,0.1127,,,,,
JVASP-88788,RbSbO2,-1.66307,2.167,3.556,0.0,,,,,
JVASP-75612,CdAsRu,0.94878,0.0,na,1.1261,,,,,
JVASP-75654,TiAsRu2,-0.00564,0.0,na,0.5074,,,,,
JVASP-68565,BeGa2Cl,0.25041,0.0,na,0.8101,,,,,
JVASP-47535,Rb2CoO3,-1.40959,0.013,0.0,0.0168,,,,,
JVASP-67596,BeCdSb,0.48689,0.0,na,0.5121,,,,,
JVASP-48971,Li4MnO2F3,-2.59868,0.888,na,0.0,,,,,
JVASP-68059,BeCuW2,-0.09318,0.0,na,0.2398,,,,,
JVASP-72562,Be2NbSe,0.10216,0.0,na,0.6681,,,,,
JVASP-68392,BeNbSi,0.28872,0.0,0.0,0.6739,,,,,
JVASP-85836,LaMg,-0.11355,0.0,na,0.0,,,,,
JVASP-92184,Ba3SnS4,-1.80773,1.174,na,0.0518,,,,,
JVASP-68145,HfBePd2,-0.48486,0.0,na,0.213,,,,,
JVASP-67245,Be2VBi,0.61824,0.0,na,0.77,,,,,
JVASP-74089,KBeP2,0.22532,0.0,na,0.6205,,,,,
JVASP-67010,BeZnCr,0.27833,0.0,na,0.383,,,,,
JVASP-86950,Ba2CaCu2HgO6,-1.84779,0.0,na,0.0088,,,,,
JVASP-12137,Bi2Pt,-0.20852,0.0,na,0.0308,,,,,
JVASP-86314,Ce2Fe17,0.00378,0.0,na,0.0433,,,,,
JVASP-48714,V2OF5,-2.90973,0.0,0.0,0.0463,,,,,
JVASP-85971,RePbClO4,-1.59866,3.171,3.717,0.0,,,,,
JVASP-68511,BeNbRu,0.07226,0.0,0.0,0.3479,,,,,
JVASP-63285,K2AgAs,-0.47618,1.287,2.087,0.0135,,,,,
JVASP-68618,Sc2BeIn,0.00824,0.0,0.0,0.3521,,,,,
JVASP-90161,Ni6Ge2B,-0.27918,0.0,na,0.0,,,,,
JVASP-75581,TaNbAs,0.59281,0.0,na,1.0233,,,,,
JVASP-15780,PrMgGa,-0.49951,0.0,na,0.0,,,,,
JVASP-67089,Be2BiW,0.66994,0.0,na,0.8824,,,,,
JVASP-75509,MnAsPt2,0.00328,0.0,na,0.3464,,,,,
JVASP-75469,TaAsP2,0.4235,0.0,na,0.9482,,,,,
JVASP-67155,TaBeRu,-0.23218,0.0,0.0,0.0863,,,,,
JVASP-74020,Ti2BePb,0.21334,0.0,0.0,0.3319,,,,,
JVASP-67481,Be2FeOs,-0.04541,0.0,na,0.1563,,,,,