jid,formula,formation_energy_per_atom,optb88vdw_bandgap,mbj_bandgap,ehull,spacegroup_number,natoms,volume,bulk_modulus_kv,shear_modulus_gv
JVASP-49783,Y2CuO4,-2.94043,0.0,na,0.0263,,,,,
JVASP-65128,Ca4BeTe,0.33841,0.0,na,0.9635,,,,,
JVASP-42549,TiO2,-3.16279,2.665,3.146,0.1004,,,,,
JVASP-65215,K4TaBe,1.47263,0.0,na,1.5453,,,,,
JVASP-32223,NiH12Cl2O6,-0.94012,1.252,na,0.0025,,,,,
JVASP-98117,CoBi2SO7,-1.32946,0.528,na,0.0,,,,,
JVASP-98386,K2CoH12S2O14,-1.27526,0.192,na,0.0,,,,,
JVASP-64177,Ba4TlSe,0.02653,0.0,na,0.922,,,,,
JVASP-5512,CS3N4,0.51567,1.608,6.737,0.5303,,,,,
JVASP-48174,LiMn2OF3,-2.24382,0.311,na,0.0,,,,,
JVASP-85297,K2Ag4Se3,-0.54744,0.037,na,0.0,,,,,
JVASP-98014,Ce3Co4Sn13,-0.3614,0.0,na,0.0012,,,,,
JVASP-64645,Ba4YIn,0.37358,0.0,na,0.5779,,,,,
JVASP-98249,Rb2SbAuS4,-0.74042,1.222,na,0.0013,,,,,
JVASP-86282,Tl2CdSnTe4,-0.3093,0.329,na,0.0053,,,,,
JVASP-48318,KCo2O4,-1.42293,0.0,na,0.0122,,,,,
JVASP-64929,BeCo4Pb,0.44284,0.0,0.0,0.554,,,,,
JVASP-48661,LiFeO3,-1.51664,0.0,na,0.0845,,,,,
JVASP-22651,SnCl2,-1.08159,3.218,4.183,0.0,,,,,
JVASP-65003,Be2TlRh,0.19161,0.0,0.0,0.5529,,,,,
JVASP-88380,NaZrCuS3,-1.32338,0.637,na,0.0,,,,,
JVASP-18615,Li2PbAu,-0.42256,0.0,na,0.0417,,,,,
JVASP-97693,Tl6SI4,-0.62605,1.588,2.079,0.0,,,,,
JVASP-64710,BaSrCl,-0.31362,0.0,0.0,1.0514,,,,,
JVASP-64849,Ba4HfHg,0.79739,0.0,na,0.9692,,,,,
JVASP-48811,Li3CrCo3O8,-1.73264,0.0,0.0,0.0471,,,,,
JVASP-65141,BeRuCl4,1.31988,0.0,na,2.3198,,,,,
JVASP-90244,MnGeRh,-0.26222,0.0,na,0.0708,,,,,
JVASP-98464,Ta2Pd3Se8,-0.62127,0.519,na,0.0,,,,,
JVASP-87923,EuPPd,-1.27976,0.0,na,0.0,,,,,
JVASP-90178,Pr2Mn2Se2O3,-2.11568,0.0,na,0.0755,,,,,
JVASP-98870,KC2N3,-0.1504,4.438,na,0.1128,,,,,
JVASP-97357,Ba2EuNbO6,-3.52231,0.0,na,0.0,,,,,
JVASP-97647,HgH16Br6N4,-0.48829,1.796,na,0.0,,,,,
JVASP-97769,La3TiSb5,-1.07041,0.0,na,0.0,,,,,
JVASP-98767,Ca6Si3H2O13,-3.02097,4.636,na,0.0,,,,,
JVASP-98523,Ba2LaAg5S6,-1.18339,1.472,na,0.0,,,,,
JVASP-1180,InN,0.00906,0.0,0.758,0.0194,,,,,
JVASP-64088,Ba4MnBi,0.86808,0.0,na,1.3025,,,,,
JVASP-64228,Ba4ScZn,0.61582,0.0,na,0.7531,,,,,
JVASP-43076,Na5Li3Ti5O14,-2.77628,3.125,na,0.0143,,,,,
JVASP-87053,Sc3Si3Ni,-0.84415,0.0,0.0,0.0,,,,,
JVASP-48398,Co3O4F2,-1.33149,0.0,na,0.0275,,,,,
JVASP-64777,Ba4LaGa,0.44716,0.0,na,0.6517,,,,,
JVASP-86607,Ba2CoMoO6,-2.43878,0.0,na,0.0164,,,,,
JVASP-16934,YCoO3,-2.29256,0.0,na,0.2632,,,,,
JVASP-97451,Na3Sc2B3O9,-2.83518,3.571,na,0.0056,,,,,
JVASP-64510,Ba4LiNi,0.75531,0.0,0.0,0.7715,,,,,
JVASP-64419,Ba4ZrSe,0.4636,0.0,0.0,1.1942,,,,,
JVASP-12163,CaPbI4,-1.18747,2.899,3.749,0.0008,,,,,
JVASP-14937,CeSe,-1.87153,0.0,na,0.0004,,,,,
JVASP-43766,Li2FeF6,-2.54401,0.0,0.0,0.0209,,,,,
JVASP-90864,Li2ZnSi,-0.00539,0.0,na,0.3063,,,,,
JVASP-86686,RbIn6Au4,-0.28608,0.0,na,0.0,,,,,
JVASP-98309,NaPO3,-2.32938,5.347,na,0.0,,,,,
JVASP-97598,CaMo5O8,-2.1788,0.176,na,0.0,,,,,
JVASP-85672,VH6O3F3,-0.79747,1.615,1.883,0.8297,,,,,
JVASP-64178,Ba4ZnSn,0.25585,0.0,na,0.7008,,,,,
JVASP-65046,KBeBi4,0.35401,0.0,na,0.5303,,,,,
JVASP-88176,Sr2LiCBr3N2,-1.59675,4.255,na,0.0,,,,,
JVASP-4918,K3VO4,-2.31381,3.647,4.114,0.0,,,,,
JVASP-65256,Be2FeCl,0.25837,0.0,na,0.9696,,,,,
JVASP-64650,Ba4TiBi,0.56766,0.0,0.0,1.0021,,,,,
JVASP-91662,LaFeSb2,-0.57115,0.0,na,0.0994,,,,,
JVASP-65129,BeHg4Ru,1.25519,0.0,na,1.3451,,,,,
JVASP-15981,SrCd2Ge2,-0.34,0.0,na,0.0125,,,,,
JVASP-65182,BeCo4Hg,0.4454,0.0,0.0,0.5565,,,,,
JVASP-98586,H8PtO6,-0.88708,1.702,na,0.0365,,,,,
JVASP-64930,LiBeHg4,0.61805,0.0,na,0.7166,,,,,
JVASP-91897,SrMg6Nb,0.1438,0.0,na,0.204,,,,,
JVASP-65093,Na4BePd,0.51387,0.0,na,0.7088,,,,,
JVASP-64303,Be2FeRu,-0.16885,0.0,0.0,0.1019,,,,,
JVASP-65004,BeFeCu4,0.35747,0.0,na,0.425,,,,,
JVASP-65216,BeIn4Ir,0.94914,0.0,na,1.1214,,,,,
JVASP-64366,Ba4YSc,0.59703,0.0,0.0,0.597,,,,,
JVASP-64970,BeVNi4,0.03572,0.0,0.0,0.3619,,,,,
JVASP-107756,Hf2CN,-1.5597,0.0,na,0.0,,,,,
JVASP-97524,Al3Bi5Cl12,-1.16471,1.776,na,0.0,,,,,
JVASP-64089,Ba4PtBr,0.132,0.0,na,1.0088,,,,,
JVASP-98466,K3SmP2O8,-2.76577,5.144,na,0.0,,,,,
JVASP-98063,Nd3S2Cl5,-2.37462,3.153,na,0.0,,,,,
JVASP-97878,Li2Ca3Be3Si3O12F2,-3.21343,5.922,na,0.0,,,,,
JVASP-98637,K2P2H2O7,-2.04488,4.994,na,0.0274,,,,,
JVASP-90453,Mg6NbC,0.25388,0.0,na,0.3894,,,,,
JVASP-97772,Pr2Se2O,-2.5878,2.055,na,0.0,,,,,
JVASP-98199,Sr3Ga2N4,-0.80264,1.668,na,0.0,,,,,
JVASP-64232,Ba4CdTe,-0.00949,0.0,na,0.7702,,,,,
JVASP-97402,CuHgSI,-0.16219,0.377,0.631,0.0274,,,,,
JVASP-89909,TmSiAg,-0.57282,0.0,na,0.0,,,,,
JVASP-91706,CeCuTeO,-1.88298,0.0,0.0,0.0116,,,,,
JVASP-64852,Ba2NaTa,0.88458,0.0,0.0,0.9114,,,,,
JVASP-64578,Ba4YP,0.51564,0.0,0.0,1.1033,,,,,
JVASP-87116,CaAlF5,-3.92567,7.485,10.53,0.0079,,,,,
JVASP-98015,BaIn2S4,-1.18698,2.064,na,0.0,,,,,
JVASP-3333,Tb2TeO2,-3.15494,1.352,2.068,0.0,,,,,
JVASP-90546,NaMg6Nb,0.15368,0.0,na,0.1552,,,,,
JVASP-64420,Ba4NaTc,1.08815,0.0,0.0,1.106,,,,,
JVASP-91948,Mn3Sn,0.20293,0.0,na,0.2029,,,,,
JVASP-64511,Ba4MnTe,0.71251,0.0,na,1.3483,,,,,
JVASP-43088,Li3Ti2CuO6,-2.51515,0.275,na,0.1096,,,,,
JVASP-64779,Ba4BeCd,0.70428,0.0,na,0.8482,,,,,
JVASP-85868,NiS2,-0.34155,0.0,na,0.0176,,,,,
JVASP-22624,Rb2NiF4,-2.43414,0.0,0.0,0.0526,,,,,
JVASP-89051,BaFeSi4O10,-2.74123,1.074,na,0.0316,,,,,
JVASP-12110,HfNCl,-2.01821,2.212,3.022,0.0,,,,,
JVASP-3834,K2PtBr6,-1.05199,1.113,1.897,0.0,,,,,
JVASP-90636,Mg3SbO4,-1.99662,0.0,na,0.5916,,,,,
JVASP-92209,GeRh,-0.49958,0.0,na,0.0,,,,,
JVASP-90051,MgGaAu,-0.45362,0.0,na,0.0,,,,,
JVASP-48112,LiMn2B2O6,-2.11697,0.199,na,0.0908,,,,,
JVASP-86163,K2FeCuC6N6,-0.06701,0.438,na,0.1671,,,,,
JVASP-42730,Ni6OF11,-1.66906,0.215,na,0.0279,,,,,
JVASP-90589,Li3Mg,-0.04023,0.0,na,0.0369,,,,,
JVASP-88848,In2Ni21P6,-0.3708,0.0,na,0.0,,,,,
JVASP-97694,Tl3Cd2I7,-0.64931,1.497,na,0.0,,,,,
JVASP-44101,Fe6O7F5,-1.65561,0.0,0.0,0.1163,,,,,
JVASP-86383,TiNi,-0.39686,0.0,na,0.0362,,,,,
JVASP-64891,Be2InPd,0.01885,0.0,0.0,0.3594,,,,,
JVASP-90122,PrCr2B6,-0.51435,0.0,na,0.0148,,,,,
JVASP-98311,Fe2TeO5,-1.2281,0.0,na,0.0972,,,,,
JVASP-64712,Ba4YCu,0.70177,0.0,0.0,0.8098,,,,,
JVASP-64182,Ba4HfPb,0.63404,0.0,na,0.9388,,,,,
JVASP-97650,H7NO6,-0.79775,3.249,na,0.013,,,,,
JVASP-65143,TaBeFe4,-0.07224,0.0,0.0,0.1157,,,,,
JVASP-64651,Ba4NaPt,0.49308,0.0,na,0.799,,,,,
JVASP-98390,Rb6Si10O23,-2.7513,4.352,na,0.0,,,,,
JVASP-86108,K2NbCl6,-1.68825,0.0,0.0,0.0001,,,,,
JVASP-98119,MnFeBiO5,-1.57774,0.0,na,0.0,,,,,
JVASP-97826,Hf27P16,-1.08169,0.0,na,0.0006,,,,,
JVASP-98587,PH3O4,-1.53021,5.933,na,0.0001,,,,,
JVASP-65183,BeRhPb4,0.99236,0.0,na,1.1921,,,,,
JVASP-98524,Nd3S3N,-2.0974,1.159,na,0.0,,,,,
JVASP-97600,CeSnPd,-0.86068,0.0,na,0.0,,,,,
JVASP-98871,Ba2InIrO6,-1.99937,0.0,na,0.0,,,,,
JVASP-64304,Ba4FeCu,1.03203,0.0,na,1.0754,,,,,
JVASP-98768,Sr3MgSi2O8,-3.23645,4.883,na,0.0,,,,,
JVASP-85570,Hg2ClO,-0.28077,1.798,2.613,0.0418,,,,,
JVASP-14623,Tm,0.0,0.0,0.0,0.0,,,,,
JVASP-86910,LiSi,-0.06465,0.161,0.471,0.1309,,,,,
JVASP-87236,Sm4I6O,-1.46377,0.0,na,0.1543,,,,,
JVASP-42237,Mn6O7F5,-2.05933,0.0,0.0,0.0,,,,,
JVASP-97773,SmB3O6,-2.94429,5.689,na,0.0,,,,,
JVASP-14742,LuGa3,-0.4731,0.0,na,0.0,,,,,
JVASP-64971,Li4BeOs,0.39454,0.0,na,0.4075,,,,,
JVASP-65258,BeInGe4,0.61978,0.0,na,0.6207,,,,,
JVASP-42431,Mn3O2F4,-2.20969,0.027,na,0.0,,,,,
JVASP-42815,Na2VO3,-2.26038,0.306,na,0.0,,,,,
JVASP-65047,BeIn4Pb,0.49693,0.0,na,0.5023,,,,,
JVASP-64236,Ba4ZnGe,0.41665,0.0,na,0.8089,,,,,
JVASP-5167,BiRh,0.16843,0.0,0.0,0.3135,,,,,
JVASP-90350,BaNdCo2O5,-2.19235,0.0,na,0.063,,,,,
JVASP-64421,Ba4MgNb,0.90407,0.0,0.0,0.9546,,,,,
JVASP-65094,Be2NiSe,0.07614,0.0,na,0.7751,,,,,
JVASP-86981,CuAgO2,-0.48262,0.0,na,0.017,,,,,
JVASP-64579,Ba4BeCo,1.25746,0.0,0.0,1.3628,,,,,
JVASP-65005,Be2CdPb,0.76029,0.0,na,0.7628,,,,,
JVASP-64855,Ba4HfBi,0.54783,0.0,0.0,0.9822,,,,,
JVASP-1696,BaLiAs,-1.03368,0.659,1.37,0.0,,,,,
JVASP-3180,KAuF6,-1.60169,2.003,2.143,0.0016,,,,,
JVASP-98467,Dy4B6O15,-3.17428,5.459,na,0.0,,,,,
JVASP-43103,TiFeP2O8,-2.31564,0.004,na,0.0159,,,,,
JVASP-47979,Fe4O7F,-1.48433,0.0,na,0.0459,,,,,
JVASP-64367,Ba4ZrZn,0.79657,0.0,0.0,0.8988,,,,,
JVASP-97358,YCI,-0.9984,0.0,0.0,0.0,,,,,
JVASP-97452,Ho3Se4O12F,-2.17238,3.462,na,0.0,,,,,
JVASP-97312,Na2SrMgP2O8,-2.76293,5.287,na,0.0,,,,,
JVASP-98065,LuU4S5O4,-2.60707,0.0,na,0.0,,,,,
JVASP-86512,LaSF,-3.34093,1.509,na,0.0,,,,,
JVASP-86452,Cu2SO5,-0.98701,0.0,na,0.0175,,,,,
JVASP-42256,NbVO4,-2.56836,0.0,0.0,0.0752,,,,,
JVASP-28359,TiSCl,-1.6039,0.0,na,0.0011,,,,,
JVASP-85374,Te2Pd3Pb2,-0.35158,0.0,na,0.0,,,,,
JVASP-88587,BiXeF9,-1.2362,1.772,na,0.0029,,,,,
JVASP-85934,LiUAsO6,-2.34732,2.434,na,0.0199,,,,,
JVASP-64653,Ba4LiBi,0.14442,0.0,na,0.5888,,,,,
JVASP-91802,TlSe,-0.27994,0.257,0.744,0.0245,,,,,
JVASP-65130,BeNbCd,0.14811,0.0,0.0,0.2771,,,,,
JVASP-64714,Ba4NbTl,0.81793,0.0,na,0.9827,,,,,
JVASP-97528,Ca5MnSi9Pb9O33,-2.51926,1.368,na,0.0,,,,,
JVASP-64931,Be2NbPt,-0.21633,0.0,0.0,0.3004,,,,,
JVASP-65218,BeCuRu,0.09542,0.0,na,0.2753,,,,,
JVASP-97651,PH3O4,-1.5303,5.933,na,0.0,,,,,
JVASP-98018,Li2ZnI4,-1.01848,3.008,na,0.0,,,,,
JVASP-65294,BeCoBi4,1.18152,0.0,0.0,1.2869,,,,,
JVASP-107758,Fe2NiSe4,-0.27484,0.0,na,0.0681,,,,,
JVASP-98527,CSCl2,0.08488,2.845,na,0.1691,,,,,
JVASP-98313,UWC2,-0.41295,0.0,na,0.0,,,,,
JVASP-90820,Zr2PbC,-0.72796,0.0,na,0.0,,,,,
JVASP-65184,BeReOs4,0.8754,0.0,na,0.965,,,,,
JVASP-98250,InH8C4NO10,-1.03593,3.579,na,0.0248,,,,,
JVASP-98203,CaSc2S4,-2.1895,1.269,na,0.0,,,,,
JVASP-90777,Sr3Mg,-0.00104,0.0,na,0.0592,,,,,
JVASP-91571,TbHO2,-2.8093,4.149,6.224,0.0,,,,,
JVASP-3756,CoH4Br2O2,-0.7478,0.192,na,0.0109,,,,,
JVASP-89983,ErZnPd,-0.79422,0.0,na,0.0,,,,,
JVASP-5518,P3Se4I,-0.02943,1.219,na,0.0081,,,,,
JVASP-97949,SrB2O4,-2.91406,6.525,na,0.0,,,,,
JVASP-98769,TeS4N4Cl4,0.06908,1.857,na,0.1921,,,,,
JVASP-91617,V3Ge,-0.30731,0.0,na,0.0,,,,,
JVASP-86858,Ti4MnBi2,-0.27557,0.0,na,0.0,,,,,
JVASP-49784,NaSbO2,-1.64625,1.41,na,0.0,,,,,
JVASP-92034,BC7,0.15642,0.0,na,0.1732,,,,,
JVASP-18401,MnH,0.29366,0.0,0.0,0.2943,,,,,
JVASP-65144,BeCoCl,0.15003,0.0,na,1.0035,,,,,
JVASP-64892,YBe2Cd,0.21487,0.0,na,0.4107,,,,,
JVASP-61162,B4Mo,0.30898,0.0,na,0.5539,,,,,
JVASP-64310,BaYBr,0.19033,0.0,0.0,1.3678,,,,,
JVASP-60865,Hf9Mo4As,-0.24863,0.0,na,0.0,,,,,
JVASP-98873,FeTeS2N2Cl5,-0.25284,0.939,na,0.1886,,,,,
JVASP-64238,Ba4CaRu,0.91664,0.0,na,0.9229,,,,,
JVASP-89300,MnNb3O6,-2.30203,0.0,na,0.057,,,,,
JVASP-64424,Ba4MnTl,0.99501,0.0,na,1.1598,,,,,
JVASP-64856,Ba4ScSb,0.32071,0.0,na,0.8012,,,,,
JVASP-15696,TmAgSn,-0.55866,0.0,na,0.0,,,,,
JVASP-88384,Sr2CuB2O6,-2.59932,0.58,na,0.0076,,,,,
JVASP-91530,ErSn3,-0.35008,0.0,na,0.0761,,,,,
JVASP-98122,H6N4O9,-0.44008,2.1,na,0.1416,,,,,
JVASP-98588,As3HO6,-1.13943,3.063,na,0.0547,,,,,
JVASP-52561,LiAgF2,-2.07242,1.182,3.315,0.0524,,,,,
JVASP-48815,Fe4O5F3,-1.61341,0.0,0.0,0.1239,,,,,
JVASP-97403,Li3ScN2,-1.13734,2.385,na,0.0,,,,,
JVASP-64580,Ba4ZnCu,0.64059,0.0,0.0,0.7856,,,,,
JVASP-48945,W3O7F,-2.3817,0.0,na,0.0,,,,,
JVASP-22518,RbPS3,-0.75176,1.7,2.581,0.0,,,,,
JVASP-64369,Ba4YSe,0.25166,0.0,0.0,0.9823,,,,,
JVASP-97879,RbNa5Be8O11,-2.50779,3.928,na,0.0,,,,,
JVASP-97695,Na4Ga2S5,-1.13497,2.465,na,0.0,,,,,
JVASP-90245,K2PtO6,-0.8203,0.303,na,0.0702,,,,,
JVASP-65095,HfBeGa4,0.25065,0.0,na,0.5208,,,,,
JVASP-85720,MnO2,-1.79554,0.217,na,0.0094,,,,,
JVASP-65049,ScBeRu4,0.15838,0.0,na,0.4526,,,,,
JVASP-4921,TiFeO3,-2.27259,0.0,0.0,0.1688,,,,,
JVASP-14840,Mg,0.0,0.0,na,0.0,,,,,
JVASP-64655,Ba4CuHg,0.56265,0.0,na,0.7772,,,,,
JVASP-31809,CoSiH12O6F6,-1.54298,0.0,0.507,0.0081,,,,,
JVASP-48662,Li2MnF6,-2.79481,2.057,na,0.0397,,,,,
JVASP-86217,CaTe,-1.73212,1.656,na,0.0512,,,,,
JVASP-23438,RbGaO2,-1.85487,2.755,4.549,0.0,,,,,
JVASP-86283,Al5C3N,-0.50649,1.029,na,0.0497,,,,,
JVASP-48400,Co3O4F2,-1.33564,0.0,na,0.0234,,,,,
JVASP-43767,Li4Ti5Cr3O16,-2.77257,0.0,na,0.01,,,,,
JVASP-90455,Mg6ZrC,0.16781,0.0,na,0.4096,,,,,
JVASP-97777,NaNdGa4S8,-1.12844,2.025,na,0.0,,,,,
JVASP-87059,Li3LaSb2,-0.93328,0.112,na,0.0,,,,,
JVASP-97601,ThFe4P2,-0.71295,0.0,na,0.0,,,,,
JVASP-88723,AlCuH28S2ClO22,-1.14791,0.946,na,0.0,,,,,
JVASP-61470,AlF3,-3.75527,8.271,11.029,0.0,,,,,
JVASP-48319,Li2Mn3F8,-2.58715,2.11,na,0.0556,,,,,
JVASP-97360,Cu5Se2Cl2O8,-0.72363,0.0,na,0.0,,,,,
JVASP-65219,MnBeCo,0.01907,0.0,na,0.2298,,,,,
JVASP-65185,Li4BeSe,0.10697,0.0,na,0.807,,,,,
JVASP-42733,Li3Mn5Cr2O12,-1.90114,0.0,na,0.1187,,,,,
JVASP-65131,BeZnCd4,0.51176,0.0,na,0.5184,,,,,
JVASP-12014,ZrBrN,-1.80566,1.47,na,0.0001,,,,,
JVASP-107759,GaCuTe2,-0.2294,0.0,0.0,0.0334,,,,,
JVASP-65259,LiBePb,0.2407,0.0,na,0.4362,,,,,
JVASP-90179,NdInNi,-0.50074,0.0,na,0.0,,,,,
JVASP-86789,K2SnHgSe4,-0.73675,1.472,2.401,0.0,,,,,
JVASP-64972,BeNi4Os,0.26445,0.0,0.0,0.4203,,,,,
JVASP-64858,Ba4ZrHg,0.71836,0.0,na,0.8901,,,,,
JVASP-48114,CoOF,-1.44428,0.0,0.0,0.0313,,,,,
JVASP-65006,Be2VIn,0.37323,0.0,na,0.5263,,,,,
JVASP-98251,Ti4S8Cl6O,-1.37817,1.481,na,0.0,,,,,
JVASP-87128,CoO,-0.66073,0.0,na,0.3108,,,,,
JVASP-98020,Cu3H2C2O8,-1.01976,0.009,na,0.0,,,,,
JVASP-98528,Hg3PO4,-1.11759,2.249,na,0.0,,,,,
JVASP-97453,Rb6Si10O23,-2.73531,3.958,na,0.016,,,,,
JVASP-98638,AlP2H5O9,-1.89773,5.728,na,0.0,,,,,
JVASP-91856,MgCrF6,-3.0169,0.0,na,0.0,,,,,
JVASP-64715,Ba4MoCl,0.85392,0.0,0.0,1.5279,,,,,
JVASP-98470,Li2WO4,-2.4421,1.771,na,0.0,,,,,
JVASP-42435,Li2TiMnO4,-2.46342,0.0,na,0.0671,,,,,
JVASP-64311,Ba4ScP,0.57072,0.0,0.0,1.1049,,,,,
JVASP-98317,NaClO3,-0.59616,0.616,na,0.1855,,,,,
JVASP-98405,Cd3N2,0.46662,0.0,na,0.4788,,,,,
JVASP-65295,BeCu4P,0.35771,0.0,na,0.4254,,,,,
JVASP-65146,Hf4BeZn,0.71988,0.0,na,0.8639,,,,,
JVASP-61193,HoAu,-0.96118,0.0,0.0,0.0,,,,,
JVASP-5170,MnBi,0.52785,0.0,0.0,0.5279,,,,,
JVASP-42321,LiMnF4,-2.7333,0.0,0.0,0.0385,,,,,
JVASP-88178,Sm3SiCuSe7,-1.40103,1.51,na,0.0,,,,,
JVASP-64663,Ba4ZrBe,1.12755,0.0,0.0,1.1756,,,,,
JVASP-85799,HI,0.06448,3.222,4.052,0.0651,,,,,
JVASP-14960,V3Si,-0.4053,0.0,na,0.0,,,,,
JVASP-64375,Ba4CaTa,0.9739,0.0,0.0,0.9802,,,,,
JVASP-64932,BeFe4Si,0.23319,0.0,0.0,0.4777,,,,,
JVASP-60874,Na4CuAs2O8,-1.60401,0.829,0.888,0.0131,,,,,
JVASP-97828,Nb3Cl5O2,-1.75354,0.75,na,0.0,,,,,
JVASP-88024,Y4CoB13,-0.51052,0.0,na,0.0,,,,,
JVASP-91898,SrMg6W,0.20869,0.0,na,0.3385,,,,,
JVASP-91707,HoZnSn2,-0.44684,0.0,na,0.0126,,,,,
JVASP-44105,Tm3TaO7,-3.67934,3.431,4.488,0.0285,,,,,
JVASP-86611,Rb3Cu8S6,-0.57642,0.0,na,0.0,,,,,
JVASP-65051,BeBi4P,0.98268,0.0,na,1.0401,,,,,
JVASP-64893,LaBeCr4,0.67319,0.0,na,0.7256,,,,,
JVASP-64581,Ba4ZrCd,0.69462,0.0,0.0,0.8385,,,,,
JVASP-87924,Ca2PbAu2,-0.79861,0.0,na,0.0,,,,,
JVASP-98204,Sc5In4Rh2,-0.70731,0.0,na,0.0,,,,,
JVASP-3336,Dy2TeO2,-3.1606,1.277,2.023,0.0,,,,,
JVASP-16935,CaNi2N2,-0.13943,0.0,na,0.387,,,,,
JVASP-97654,Nb2Ni4O9,-1.66479,0.135,na,0.0257,,,,,
JVASP-3492,RbInTe2,-0.75723,1.203,1.829,0.0,,,,,
JVASP-42816,V3O4F2,-2.65754,0.0,na,0.052,,,,,
JVASP-97602,CeMgCu2,-0.19056,0.0,na,0.0,,,,,
JVASP-65096,La4BeTc,1.09009,0.0,na,1.1448,,,,,
JVASP-91949,CeMg6Al,0.02142,0.0,na,0.1148,,,,,
JVASP-90637,YMg6Cu,-0.00251,0.0,na,0.0922,,,,,
JVASP-65220,K4BeSb,0.45339,0.0,na,0.7905,,,,,
JVASP-97880,CaTeO3,-2.14128,2.758,na,0.0,,,,,
JVASP-86040,LaCN2Cl,-1.39575,3.472,na,0.0,,,,,
JVASP-38244,Rb3In,0.01133,0.0,0.0,0.1119,,,,,
JVASP-90547,MgAl3,0.00417,0.0,na,0.0365,,,,,
JVASP-47982,Li3FeCo3O8,-1.61134,0.0,0.0,0.047,,,,,
JVASP-85476,ZrCo3B2,-0.57453,0.0,na,0.0055,,,,,
JVASP-14624,Ho,0.0086,0.0,0.0,0.0,,,,,
JVASP-97953,K2P2H2O7,-2.05488,5.208,na,0.0174,,,,,
JVASP-97404,SrIn2Rh,-0.55064,0.0,na,0.0,,,,,
JVASP-97529,LiNdP4O12,-2.48755,5.822,na,0.034,,,,,
JVASP-98774,KGe2BO6,-2.06661,3.498,na,0.0,,,,,
JVASP-98471,BaMoO4,-2.77536,3.996,na,0.0,,,,,
JVASP-64859,Ba4PbBr,-0.148,0.0,0.0,0.7455,,,,,
JVASP-42866,Pr2CuRu,-0.19151,0.0,na,0.0223,,,,,
JVASP-64312,KBa4Re,1.25109,0.0,0.0,1.2525,,,,,
JVASP-61682,Ni6Ge2B,-0.27893,0.0,na,0.0002,,,,,
JVASP-90590,LiMg3,-0.04493,0.0,na,0.0171,,,,,
JVASP-98123,H3ClO5,-0.36063,5.163,na,0.1418,,,,,
JVASP-98874,Yb3KF10,-3.29574,0.0,na,0.0,,,,,
JVASP-42239,Fe2O3F,-1.54416,0.0,na,0.0896,,,,,
JVASP-43535,Na5CoO4,-1.41788,0.097,0.46,0.0433,,,,,
JVASP-42551,Ni3O4,-0.84784,0.0,0.0,0.0,,,,,
JVASP-49785,Na4MgO3,-1.71799,1.723,na,0.1134,,,,,
JVASP-85870,LaZn5,-0.32437,0.0,na,0.0297,,,,,
JVASP-65260,MgZrBe,0.05226,0.0,0.0,0.1483,,,,,
JVASP-5521,SCl2O2,-0.69625,3.686,4.873,0.0,,,,,
JVASP-107760,GaAgSeS,-0.49483,0.559,1.675,0.0008,,,,,
JVASP-90123,Dy2CuGe6,-0.41638,0.0,na,0.0529,,,,,
JVASP-64376,Ba4MgV,1.04514,0.0,0.0,1.0956,,,,,
JVASP-91618,ZrCuGeAs,-0.58141,0.0,na,0.0077,,,,,
JVASP-65008,SrBeIn4,0.21147,0.0,na,0.4771,,,,,
JVASP-65296,BeGa4Rh,0.40316,0.0,na,0.6961,,,,,
JVASP-65147,BeVRh4,0.26352,0.0,0.0,0.725,,,,,
JVASP-91755,KNa3H4,-0.25715,3.121,5.72,0.0497,,,,,
JVASP-97457,FeBiO3,-1.27011,0.0,na,0.1366,,,,,
JVASP-64583,Ba4MnCd,1.04274,0.0,na,1.1866,,,,,
JVASP-43542,Li3YNi2O6,-1.96232,0.0,0.0,0.1201,,,,,
JVASP-92211,SrCuSn2,-0.46282,0.0,na,0.0,,,,,
JVASP-65186,BeInCu4,0.19183,0.0,na,0.2291,,,,,
JVASP-86982,RbCr5S8,-0.90154,0.235,na,0.0,,,,,
JVASP-48817,Fe2OF3,-1.75035,0.0,na,0.1893,,,,,
JVASP-22625,SO3,-1.04816,5.354,6.933,0.0,,,,,
JVASP-97362,GeBi12O20,-1.42296,2.395,3.244,0.0,,,,,
JVASP-88588,K3SbN3O9F3,-1.35568,3.076,na,0.0305,,,,,
JVASP-98253,BeF2,-3.42889,8.033,na,0.0112,,,,,
JVASP-98529,NaCoF3,-2.28129,0.0,na,0.0,,,,,
JVASP-97696,K3BiSe3,-1.05549,1.965,2.525,0.0,,,,,
JVASP-86740,CaAgBi,-0.61158,0.029,0.163,0.0,,,,,
JVASP-86389,HoInCu,-0.43838,0.0,na,0.0,,,,,
JVASP-87239,Na2CaPO4F,-2.84384,5.09,na,0.0,,,,,
JVASP-3837,InClO,-1.45602,2.416,3.959,0.0,,,,,
JVASP-88851,CaV4Ag2O12,-2.27493,1.577,na,0.0,,,,,
JVASP-98022,BaCu4S3,-0.74056,0.031,na,0.0,,,,,
JVASP-89054,DyCrO3,-3.04522,1.019,na,0.0,,,,,
JVASP-97778,Y3FeB7,-0.64705,0.0,na,0.0,,,,,
JVASP-64718,Ba4YBe,0.84741,0.0,0.0,0.8474,,,,,
JVASP-90821,ThAgPO,-2.01218,0.0,na,0.0027,,,,,
JVASP-90721,ThCuPO,-2.12236,0.0,0.0,0.0,,,,,
JVASP-85936,Pr5Ru2O12,-2.80563,0.169,na,0.0,,,,,
JVASP-64973,MnBe2Sn,0.23357,0.0,0.0,0.4099,,,,,
JVASP-65097,BeGaCl4,0.54182,0.0,0.0,1.8044,,,,,
JVASP-97604,CaCuH4C4O8,-1.19187,0.796,na,0.1392,,,,,
JVASP-85300,Ce2ZnNi2,-0.38842,0.0,na,0.0461,,,,,
JVASP-65132,LiBe2Ni,-0.03896,0.0,na,0.219,,,,,
JVASP-86218,BH6N,-0.26785,6.178,na,0.0804,,,,,
JVASP-62215,Ca4Al6SO12,-3.23192,3.808,6.33,0.0197,,,,,
JVASP-89986,K2PtS6,-0.3823,0.0,na,0.2923,,,,,
JVASP-97406,AlPO4,-1.88132,2.085,na,0.8975,,,,,
JVASP-97532,Ba2ZnH6O6,-1.13093,3.028,na,0.5486,,,,,
JVASP-86285,SrLi4P2,-0.93985,1.035,na,0.0,,,,,
JVASP-61194,Nb3Au2,-0.05049,0.0,na,0.123,,,,,
JVASP-97829,Ti5FeSb2,-0.42877,0.0,na,0.0277,,,,,
JVASP-90054,YInCu,-0.46443,0.0,na,0.0,,,,,
JVASP-90865,BaMgC2O4,-1.7522,1.281,3.17,0.4886,,,,,
JVASP-14876,HfAl,-0.39535,0.0,na,0.0042,,,,,
JVASP-64313,Ba4VBr,0.74653,0.0,0.0,1.3353,,,,,
JVASP-86164,Be12W,-0.09684,0.0,na,0.0,,,,,
JVASP-92036,SiRh,-0.71811,0.0,na,0.0,,,,,
JVASP-61472,CaCdAu,-0.70075,0.0,na,0.0,,,,,
JVASP-52566,TiGa2O5,-2.40821,2.243,2.79,0.0665,,,,,
JVASP-43768,VO2,-2.48247,0.0,na,0.0773,,,,,
JVASP-64934,BeVCo4,0.05726,0.0,0.0,0.3044,,,,,
JVASP-91803,Nb2GeC,-0.52637,0.0,na,0.0,,,,,
JVASP-97955,H2C2S3N2O6F6,-1.00551,6.043,na,0.227,,,,,
JVASP-90778,ZrSn3,-0.1254,0.0,na,0.1789,,,,,
JVASP-3183,SrCuSF,-2.23796,1.774,2.815,0.0,,,,,
JVASP-97882,ZnBi6P2O14F2,-1.80041,2.446,na,0.0654,,,,,
JVASP-98473,BaCoP2O7,-2.35741,0.386,na,0.0,,,,,
JVASP-98205,V2CoP2O10,-2.20264,0.0,na,0.0,,,,,
JVASP-98776,SiO2,-2.86825,5.765,na,0.033,,,,,
JVASP-64894,MgBeGa4,0.32929,0.0,na,0.3947,,,,,
JVASP-88387,Zr2P2O9,-2.99136,4.355,na,0.0,,,,,
JVASP-91663,SmCoC2,-0.39108,0.0,na,0.0,,,,,
JVASP-22519,CrMoF6,-2.29189,0.0,0.0,0.2866,,,,,
JVASP-48663,LiMn2F5,-2.57956,2.459,na,0.0166,,,,,
JVASP-98408,Ga3Cl7,-1.08433,3.772,na,0.0,,,,,
JVASP-98066,B5Pb2ClO9,-2.29716,3.636,na,0.0,,,,,
JVASP-65052,YBeCo4,-0.02726,0.0,na,0.2123,,,,,
JVASP-4924,CoO,-0.66645,0.0,0.0,0.3051,,,,,
JVASP-98125,Bi2O3,-1.10348,0.418,na,0.2604,,,,,
JVASP-97657,RbVPO5,-2.45308,1.388,na,0.0,,,,,
JVASP-86514,LaCo2Si2,-0.70774,0.0,na,0.0,,,,,
JVASP-61992,VAu4,-0.00048,0.0,0.0,0.0128,,,,,
JVASP-61695,Li3GaB2O6,-2.42979,4.353,na,0.0145,,,,,
JVASP-98530,Sr2Sc2B4O11,-3.15759,4.433,na,0.0,,,,,
JVASP-86687,Ca3N2,-0.99465,1.733,3.019,0.032,,,,,
JVASP-65221,BeGaBr4,0.63491,0.0,0.0,1.5608,,,,,
JVASP-65263,SrBeCu4,0.14134,0.0,na,0.2804,,,,,
JVASP-97313,Y4AlSiNO8,-3.42531,3.818,na,0.0141,,,,,