jid,formula,formation_energy_per_atom,optb88vdw_bandgap,mbj_bandgap,ehull,spacegroup_number,natoms,volume,bulk_modulus_kv,shear_modulus_gv
JVASP-102177,TcRh,-0.1205,0.0,na,0.011,,,,,
JVASP-100761,Tl3Sn,0.02896,0.0,na,0.029,,,,,
JVASP-18559,K5Sb4,-0.51609,0.0,na,0.0128,,,,,
JVASP-102989,TiCrTc2,-0.25813,0.0,na,0.0,,,,,
JVASP-16065,Ag,0.0017,0.0,na,0.0,,,,,
JVASP-100395,GeTe2Pb,-0.19255,0.569,0.665,0.0774,,,,,
JVASP-101900,ZnH4C4O4,-0.7471,3.886,na,0.1277,,,,,
JVASP-28831,Te2Mo3WSe6,-0.47042,0.539,na,0.0957,,,,,
JVASP-101665,Ba2LuReO6,-2.94495,0.0,na,0.0,,,,,
JVASP-100668,KFeN,-0.05518,0.302,na,0.1465,,,,,
JVASP-103255,HfZrRu2,-0.75394,0.0,na,0.0015,,,,,
JVASP-102743,Ho2TeS2,-1.96617,1.799,2.42,0.0129,,,,,
JVASP-100449,Li2CoN2,-0.25127,0.0,0.0,0.1546,,,,,
JVASP-103715,HfTeSe,-1.11766,0.0,0.191,0.0028,,,,,
JVASP-101119,Sn3Sb,0.02589,0.0,0.0,0.0311,,,,,
JVASP-102643,ZrInPd2,-0.61825,0.0,0.0,0.0736,,,,,
JVASP-100354,Si2NiPd,-0.42848,0.0,na,0.0131,,,,,
JVASP-1480,GaCuO2,-1.47735,1.01,1.172,0.0217,,,,,
JVASP-103664,YbPaO4,-3.50879,0.0,na,0.0,,,,,
JVASP-19835,DyPd3,-0.92774,0.0,0.0,0.0061,,,,,
JVASP-101766,KCrF6,-2.62696,0.0,na,0.0,,,,,
JVASP-14675,NbGe2,-0.28612,0.0,0.0,0.0,,,,,
JVASP-100627,SmCr2Si2C,-0.43295,0.0,na,0.0,,,,,
JVASP-100891,Na2CuBiCl6,-1.10395,0.983,na,0.1536,,,,,
JVASP-102591,Zr2TcOs,-0.57247,0.0,na,0.0,,,,,
JVASP-104142,H7C8SN,0.03707,2.463,na,0.1698,,,,,
JVASP-102062,K2TlAsF6,-2.36761,2.762,3.61,0.0835,,,,,
JVASP-99608,Tl3Zn,0.12816,0.0,0.0,0.1282,,,,,
JVASP-102691,PrTl2InTe4,-0.67075,1.108,1.302,0.0659,,,,,
JVASP-101178,La2Al3Sn,-0.63462,0.0,na,0.0,,,,,
JVASP-2445,Tl3VS4,-0.69536,1.892,1.809,0.0,,,,,
JVASP-102439,LiHF2,-2.42649,8.336,12.09,0.0,,,,,
JVASP-20083,CeCo2,-0.29429,0.0,na,0.0,,,,,
JVASP-48361,Co3O2F4,-1.56479,0.0,na,0.0273,,,,,
JVASP-43130,Li2MnNi2O6,-1.44938,0.0,na,0.1705,,,,,
JVASP-102495,HfNbRu2,-0.48592,0.0,0.0,0.0111,,,,,
JVASP-44742,Li5Ni5Sn2O12,-1.47648,0.0,na,0.0724,,,,,
JVASP-100848,Ce2AlFe3,-0.18659,0.0,na,0.018,,,,,
JVASP-101233,BaInGa,-0.53777,0.0,na,0.0074,,,,,
JVASP-102920,Br2Cl3,0.19817,0.0,na,0.2276,,,,,
JVASP-100516,YbCeAg2,-0.30424,0.0,na,0.0235,,,,,
JVASP-100803,SrInAu5,-0.4938,0.0,na,0.0,,,,,
JVASP-103435,Pb2SeS,-0.61348,0.538,na,0.0145,,,,,
JVASP-15128,CeFe2Si2,-0.63604,0.0,na,0.0,,,,,
JVASP-12908,B6P,-0.30569,2.553,2.724,0.0,,,,,
JVASP-104098,H3C7NO,-0.05673,2.03,na,0.2366,,,,,
JVASP-14985,DySi,-0.8044,0.0,0.0,0.0015,,,,,
JVASP-101014,Sc2CdGa,-0.47491,0.0,na,0.0,,,,,
JVASP-101840,H4C8SO2,-0.08636,1.316,na,0.3148,,,,,
JVASP-100762,VCr3,-0.06787,0.0,na,0.0,,,,,
JVASP-102375,K2InGaCl6,-1.43469,1.289,na,0.0924,,,,,
JVASP-101517,Rb2YAgF6,-3.12147,2.742,4.924,0.0,,,,,
JVASP-2919,FeSi4P4,-0.28757,1.101,1.082,0.0,,,,,
JVASP-1306,BaO,-2.74583,2.048,3.411,0.0285,,,,,
JVASP-103329,Y2AlCd,-0.43131,0.0,na,0.0,,,,,
JVASP-52857,Cr7Se8,-0.37975,0.0,na,0.0826,,,,,
JVASP-102124,SbAu3,0.07179,0.0,na,0.0985,,,,,
JVASP-102353,VOF3,-2.70043,2.478,na,0.0401,,,,,
JVASP-102235,CaCrN2,-0.97082,0.0,na,0.0,,,,,
JVASP-101715,HoNiGe,-0.7602,0.0,na,0.0837,,,,,
JVASP-100450,ZrPbN2,-0.8163,0.858,na,0.2031,,,,,
JVASP-15505,Zr2CS,-1.49204,0.0,na,0.0,,,,,
JVASP-14898,NbSe2,-0.85838,0.0,na,0.0091,,,,,
JVASP-100355,SbTePd2,-0.36339,0.0,na,0.0038,,,,,
JVASP-102299,ZnPb3,0.10178,0.0,na,0.1018,,,,,
JVASP-18427,CoH2O2,-0.83736,0.0,0.0,0.1725,,,,,
JVASP-102799,Ca2Ga7Ag,-0.40194,0.0,0.0,0.0,,,,,
JVASP-103142,ZrSnN2,-0.83512,0.654,1.258,0.1843,,,,,
JVASP-102744,Hg2IBr3,-0.30988,1.437,na,0.0,,,,,
JVASP-101234,Ba2IBrF2,-3.18415,4.368,na,0.0,,,,,
JVASP-101429,Si2Ir,-0.40585,0.0,0.0,0.0,,,,,
JVASP-100893,K2AlTlCl6,-1.64667,3.618,na,0.0813,,,,,
JVASP-103256,Ho2GaAg,-0.49116,0.0,na,0.0146,,,,,
JVASP-18450,NiI2,-0.09994,0.0,0.0,0.0,,,,,
JVASP-15684,YNi2B2C,-0.57003,0.0,na,0.0,,,,,
JVASP-100849,CaMn3O4,-1.77599,0.0,na,0.1967,,,,,
JVASP-102063,K2NaTlCl6,-1.46647,1.817,na,0.0393,,,,,
JVASP-101556,Dy3Bi,-0.36412,0.0,0.0,0.0933,,,,,
JVASP-100574,K2TlGaCl6,-1.42368,2.164,3.151,0.1296,,,,,
JVASP-14344,Cr2NiS4,-0.64327,0.0,0.0,0.0376,,,,,
JVASP-101901,ZnH4C4O4,-0.72164,4.047,na,0.1532,,,,,
JVASP-103919,ZnH10C7O4,-0.49051,4.388,na,0.1104,,,,,
JVASP-103665,YbMn2BiSb,-0.02507,0.0,na,0.3593,,,,,
JVASP-99651,Y2In3Pb3,-0.36346,0.0,na,0.0159,,,,,
JVASP-3003,CaZn2P2,-0.76804,0.906,1.421,0.0,,,,,
JVASP-102442,Cu3NiHgSe4,-0.06958,0.0,na,0.1075,,,,,
JVASP-102921,YbCaHg2,-0.54719,0.0,na,0.011,,,,,
JVASP-101940,HfH6C5O4,-0.59871,1.116,na,0.5229,,,,,
JVASP-100628,Pu2TeO2,-2.82971,0.0,na,0.0,,,,,
JVASP-100517,Y2TlHg,-0.42222,0.0,na,0.0,,,,,
JVASP-101069,Al2CuMo,-0.11204,0.0,na,0.1531,,,,,
JVASP-49890,Ba4IrO6,-2.35212,0.0,0.0,0.0064,,,,,
JVASP-101179,KTlCo4Se4,-0.37947,0.0,na,0.0337,,,,,
JVASP-101617,Tl3S,-0.1724,0.0,na,0.1227,,,,,
JVASP-2769,SnF3,-2.46216,2.94,3.784,0.0189,,,,,
JVASP-103068,Na2CaSi,-0.14645,0.293,0.757,0.1619,,,,,
JVASP-100396,GeTePb2Se2,-0.40902,0.687,0.923,0.0248,,,,,
JVASP-103441,NbMo,-0.07036,0.0,na,0.0485,,,,,
JVASP-102178,Te4As2I2O,-0.05428,0.383,na,0.2409,,,,,
JVASP-102236,NaFeN,-0.22673,0.406,na,0.0,,,,,
JVASP-106241,Eu2Mg,-0.07327,0.0,na,0.0,,,,,
JVASP-16066,Sc3GaC,-0.73051,0.0,0.0,0.0,,,,,
JVASP-15574,TbSi2Os2,-0.69365,0.0,0.0,0.0,,,,,
JVASP-19934,DySi2,-0.46293,0.0,0.0,0.0759,,,,,
JVASP-14951,PuAs,-1.25053,0.0,0.0,0.0,,,,,
JVASP-100962,DyMg2,-0.08289,0.0,0.0,0.0,,,,,
JVASP-101666,ZrScFe4,-0.34335,0.0,na,0.0,,,,,
JVASP-100804,SrLaFe2O6,-2.47767,0.0,na,0.0,,,,,
JVASP-104499,KNaSe,-1.06463,2.196,3.813,0.1583,,,,,
JVASP-4098,K4CdAs2,-0.49556,0.684,1.916,0.0,,,,,
JVASP-101716,HfZrC2,-1.0162,0.0,na,0.0,,,,,
JVASP-103331,Y3Ge,-0.33616,0.0,na,0.2478,,,,,
JVASP-102990,TiAu3,-0.30032,0.0,0.0,0.0572,,,,,
JVASP-102592,Zr2TcRu,-0.58509,0.0,na,0.0,,,,,
JVASP-100763,Y2AlAg,-0.4167,0.0,0.0,0.0085,,,,,
JVASP-102644,Zn2SeS,-0.80299,1.406,2.786,0.0019,,,,,
JVASP-15107,SmB2Rh3,-0.67912,0.0,na,0.0,,,,,
JVASP-102127,SmZr,0.16469,0.0,0.0,0.1647,,,,,
JVASP-101518,Na2LiCeCl6,-1.92268,0.29,na,0.1901,,,,,
JVASP-101071,ZrNbAl6,-0.45221,0.0,na,0.0089,,,,,
JVASP-103716,Hf4AgPd,-0.34333,0.0,0.0,0.0,,,,,
JVASP-103976,CdH12C8O4,-0.43267,3.851,na,0.0888,,,,,
JVASP-102377,K2NdCuI6,-1.13987,1.876,1.953,0.0704,,,,,
JVASP-102496,Hf2CoOs,-0.61331,0.0,na,0.0008,,,,,
JVASP-100452,SrCa2N2,-0.72991,0.0,na,0.192,,,,,
JVASP-16000,SiCN,1.51032,0.0,na,2.2474,,,,,
JVASP-49849,Nb3N5,-0.89745,0.746,na,0.0664,,,,,
JVASP-50726,LiCuPO4,-1.8684,0.0,na,0.0617,,,,,
JVASP-101015,Sc2CdAu,-0.58692,0.0,0.0,0.0071,,,,,
JVASP-102300,Tb2CoGe2,-0.77742,0.005,na,0.0,,,,,
JVASP-100894,K2RbAsI6,-0.89519,2.146,2.737,0.1345,,,,,
JVASP-1483,KErS2,-2.06779,2.362,na,0.0,,,,,
JVASP-103144,Co2PbN2,0.24359,0.0,na,0.2604,,,,,
JVASP-101902,ZnH4C4O4,-0.73078,3.989,na,0.144,,,,,
JVASP-100850,Bi2TeSe2,-0.36564,0.295,0.586,0.0,,,,,
JVASP-102922,CdBi3,0.12264,0.0,na,0.1251,,,,,
JVASP-103069,MnHg2S3,-0.1479,0.0,na,0.1715,,,,,
JVASP-2772,BaSnF6,-3.21657,5.221,7.418,0.0,,,,,
JVASP-103614,MgHg2,0.01185,0.0,na,0.1012,,,,,
JVASP-101181,La2Al3Ge,-0.66804,0.0,na,0.0,,,,,
JVASP-101796,H6C10SO2,-0.03407,3.136,na,0.3106,,,,,
JVASP-101618,TmLuCu2,-0.36139,0.0,na,0.0,,,,,
JVASP-100963,CeHo3,0.03759,0.0,na,0.0409,,,,,
JVASP-15794,SrAg2Sn2,-0.37422,0.0,na,0.0,,,,,
JVASP-103442,Nd2Si3Ni,-0.66129,0.0,na,0.1095,,,,,
JVASP-14676,AlRh,-1.07361,0.0,0.0,0.0,,,,,
JVASP-102693,PuU4N5,-1.44853,0.0,na,0.1279,,,,,
JVASP-101768,NiF2,-1.77548,0.474,0.569,0.0,,,,,
JVASP-101430,ErBrO,-3.13256,4.377,6.12,0.0,,,,,
JVASP-14264,Ta2SnO7,-2.52119,1.657,na,0.1479,,,,,
JVASP-15049,PuB,0.25343,0.0,na,0.7807,,,,,
JVASP-103793,H9C8N,-0.01333,2.833,na,0.1403,,,,,
JVASP-102542,PdAu3,-0.081,0.0,na,0.0088,,,,,
JVASP-100518,YbEu3,0.04633,0.0,0.0,0.0466,,,,,
JVASP-103554,K2TiAgF6,-2.82324,0.0,na,0.2661,,,,,
JVASP-100575,K2NaMoBr6,-1.25497,1.306,na,0.0603,,,,,
JVASP-49806,CaTm2O4,-3.68768,3.404,4.962,0.0507,,,,,
JVASP-102064,K2NaBiF6,-2.77738,4.99,6.815,0.017,,,,,
JVASP-2235,KSnAs,-0.46805,0.396,1.339,0.0,,,,,
JVASP-100629,KRb2InF6,-2.89926,5.613,8.44,0.0,,,,,
JVASP-100397,GeAsW,-0.17125,0.0,na,0.0478,,,,,
JVASP-102745,K2NaMoO3F3,-2.61135,2.434,na,0.0,,,,,
JVASP-15760,LuAl2Ge2,-0.40855,0.0,na,0.0,,,,,
JVASP-100764,Xe,4e-05,6.148,7.613,0.0,,,,,
JVASP-102497,Hf3Ga,-0.23877,0.0,na,0.0475,,,,,
JVASP-102129,YbSr3,0.02569,0.0,na,0.0257,,,,,
JVASP-101121,Sm2SbS,-1.59568,0.0,0.0,0.0988,,,,,
JVASP-101667,ZrTaCr4,-0.09423,0.0,na,0.0,,,,,
JVASP-101557,ErBi3,-0.28061,0.0,0.0,0.1524,,,,,
JVASP-101182,KRbCl2,-2.0965,4.977,na,0.0,,,,,
JVASP-102645,ZnSnAs2,-0.15685,0.0,0.0,0.0221,,,,,
JVASP-103863,H6C7SN2,0.0154,1.742,na,0.1631,,,,,
JVASP-101842,H5C9S2NO,0.03496,1.097,na,0.2717,,,,,
JVASP-15092,LuB2Os3,-0.34286,0.0,na,0.0873,,,,,
JVASP-102301,Tl3GaF6,-2.25716,3.296,4.188,0.0,,,,,
JVASP-102381,K2InAsF6,-2.3756,1.899,2.224,0.1715,,,,,
JVASP-12196,CrO2,-1.89099,0.0,na,0.2202,,,,,
JVASP-101016,SmHo3,0.00993,0.0,na,0.0102,,,,,
JVASP-100895,K2NaScBr6,-1.80161,3.034,na,0.0,,,,,
JVASP-15285,ZrAlCo2,-0.55349,0.0,0.0,0.0,,,,,
JVASP-101377,MgSi2,0.18614,0.0,0.0,0.2953,,,,,
JVASP-18477,Mo2N,-0.37263,0.0,na,0.0084,,,,,
JVASP-101073,ZrTiPb2O6,-2.61316,2.801,3.062,0.0091,,,,,
JVASP-102991,TePb3,-0.01648,0.0,na,0.1983,,,,,
JVASP-2775,BaTiF6,-3.82715,4.284,4.2,0.0,,,,,
JVASP-51193,CrGaTe,0.56446,0.0,0.0,0.798,,,,,
JVASP-15364,DyGe2Rh2,-0.85233,0.0,0.0,0.0,,,,,
JVASP-101903,ZnH4C4O4,-0.74706,3.888,na,0.1277,,,,,
JVASP-14986,ErAg,-0.3792,0.0,na,0.0,,,,,
JVASP-104500,Li3RhF6,-2.36855,2.031,2.576,0.2086,,,,,
JVASP-101769,K2MnF4,-2.77944,1.31,na,0.0,,,,,
JVASP-100454,Li2CoNiO4,-1.56905,0.0,na,0.0244,,,,,
JVASP-100851,CaY2Te4,-1.56278,0.622,0.928,0.0,,,,,
JVASP-101717,HfZrFe4,-0.34639,0.0,na,0.0,,,,,
JVASP-101619,Tm5Mg,0.01048,0.0,na,0.0331,,,,,
JVASP-3459,In2HgSe4,-0.3951,0.516,1.639,0.0,,,,,
JVASP-19913,NbZn3,-0.16544,0.0,0.0,0.0,,,,,
JVASP-103717,Hf3ScSi4,-0.75267,0.0,0.0,0.0023,,,,,
JVASP-101519,RbInI3,-0.91463,0.0,na,0.0165,,,,,
JVASP-104100,HCO,-0.6184,4.725,na,0.2097,,,,,
JVASP-102443,CrMoF6,-2.57853,0.773,na,0.0,,,,,
JVASP-54717,H7BrO3,-0.8782,4.259,6.429,0.0128,,,,,
JVASP-102237,BaFe2N2,-0.21451,0.0,na,0.2565,,,,,
JVASP-102923,CoMo3,0.23082,0.0,na,0.2619,,,,,
JVASP-15575,FeCo2Si,-0.27442,0.0,0.0,0.0269,,,,,
JVASP-15161,TbAlPd,-0.89835,0.0,0.0,0.0054,,,,,
JVASP-14677,Sc,0.04627,0.0,0.0,0.0,,,,,
JVASP-102065,K2BiAuCl6,-1.17386,0.535,na,0.0925,,,,,
JVASP-100805,SrIn3Hg,-0.29478,0.0,0.0,0.0206,,,,,
JVASP-101431,TbBiPt,-1.0557,0.0,0.0,0.0,,,,,
JVASP-100398,Fe3NiP4,-0.55821,0.0,na,0.0,,,,,
JVASP-103445,Na4TeSe,-1.0688,1.989,3.522,0.0103,,,,,
JVASP-44051,Li2MnF4,-2.8133,2.605,na,0.0392,,,,,
JVASP-106242,GaCo3,-0.07363,0.0,na,0.0568,,,,,
JVASP-100765,Y3Bi,-0.3543,0.0,na,0.1574,,,,,
JVASP-50880,In2HgO4,-1.28617,0.273,1.727,0.0002,,,,,
JVASP-103072,Mn3FeAs4,-0.19608,0.0,na,0.0065,,,,,
JVASP-43132,Li2Mn2CrO6,-2.02038,0.025,na,0.0915,,,,,
JVASP-5668,TaCl4,-1.352,1.101,1.695,0.0,,,,,
JVASP-4861,YbGa2,-0.59077,0.0,0.0,0.0753,,,,,
JVASP-102382,K2TaHgF6,-2.60509,0.0,na,0.3232,,,,,
JVASP-100708,AgGe3,0.28287,0.0,0.0,0.2829,,,,,
JVASP-19007,ZnP2,-0.26408,1.473,2.059,0.0,,,,,
JVASP-48135,Fe4OF7,-1.95786,0.0,0.0,0.0257,,,,,
JVASP-103335,Yb2H6Ru,-0.7138,2.682,2.794,0.0,,,,,
JVASP-102543,Pm3Ag,-0.01129,0.0,na,0.0677,,,,,
JVASP-15210,TmSnAu,-0.85237,0.04,0.075,0.0,,,,,
JVASP-102180,Sr2MnGaO5F,-2.61135,0.0,0.0,0.0,,,,,
JVASP-102646,Zn5SeS4,-0.85697,1.671,na,0.0,,,,,
JVASP-101378,K2AgSbI6,-0.73589,0.43,na,0.0799,,,,,
JVASP-100852,Ba2InCuO4,-2.08317,1.386,na,0.0003,,,,,
JVASP-104560,Bi3Au,0.13534,0.0,0.0,0.1519,,,,,
JVASP-101184,InGaP2,-0.29159,0.423,1.481,0.0361,,,,,
JVASP-100519,NaScTl2F6,-3.05106,4.914,5.742,0.0,,,,,
JVASP-104143,H10C13O,-0.02625,3.237,na,0.1876,,,,,
JVASP-100576,RbAuF3,-1.77751,0.0,0.0,0.1021,,,,,
JVASP-103920,ZnH10C7O4,-0.48551,4.344,na,0.1154,,,,,
JVASP-102802,Al4Ni3Pt,-0.73345,0.0,0.0,0.0269,,,,,
JVASP-102992,YbTmPd2,-0.98258,0.0,na,0.0,,,,,
JVASP-42890,Er2TlCd,-0.34256,0.0,0.0,0.0,,,,,
JVASP-101074,ZnCdTe2,-0.42575,0.511,1.676,0.0148,,,,,
JVASP-103257,HfH3,-0.21527,0.0,0.0,0.1575,,,,,
JVASP-28833,Te4MoW3Se2S2,-0.30474,0.141,0.359,0.2431,,,,,
JVASP-102594,ZrCo3,-0.20965,0.0,na,0.0767,,,,,
JVASP-100806,Sr4BrN2Cl,-1.5664,1.931,na,0.0297,,,,,
JVASP-103556,Na2ScCuF6,-2.90394,0.112,na,0.1853,,,,,
JVASP-101844,H9C12NO,0.02645,2.622,na,0.2563,,,,,
JVASP-18428,CrO2,-1.89202,0.0,0.0,0.2192,,,,,
JVASP-101941,HfH8C6O4,-0.71258,2.389,na,0.2598,,,,,
JVASP-18670,ZrCoSn,-0.48467,0.0,na,0.0,,,,,
JVASP-103667,Zr3Sn4Sb2,-0.45588,0.0,na,0.0,,,,,
JVASP-100897,K2CuAuF6,-2.02018,0.0,na,0.0712,,,,,
JVASP-103148,TiZnBi2O6,-1.93567,0.896,na,0.0771,,,,,
JVASP-51194,CuSiBr,0.64073,0.0,na,0.9713,,,,,
JVASP-2199,MgSiP2,-0.48997,1.458,2.236,0.0,,,,,
JVASP-101668,ZrNbFe4,-0.22442,0.0,na,0.0166,,,,,
JVASP-104501,K2NaYCl6,-2.18724,4.825,na,0.0,,,,,
JVASP-76235,Tb4MgIr,-0.45419,0.0,na,0.0,,,,,
JVASP-2547,Na2AgSb,-0.39531,0.756,1.425,0.0,,,,,
JVASP-15406,HoCu2Ge2,-0.47742,0.0,na,0.0,,,,,
JVASP-102445,ZrZnCo2,-0.33553,0.0,0.0,0.0,,,,,
JVASP-50964,BaSr2I6,-1.7726,3.872,4.781,0.0529,,,,,
JVASP-100709,Ba3Na,0.06497,0.0,na,0.0917,,,,,
JVASP-16210,CoTe2,-0.16864,0.0,0.0,0.0361,,,,,
JVASP-102499,Hf3Bi,-0.00612,0.0,na,0.1089,,,,,
JVASP-101520,Rb2LiLaCl6,-2.24712,4.53,na,0.013,,,,,
JVASP-101122,Si3P3Ir,-0.36017,1.017,1.357,0.001,,,,,
JVASP-99652,SmZnCuP2,-0.79725,0.0,0.208,0.0,,,,,
JVASP-101718,HfTiPb2O6,-2.65058,2.358,na,0.0,,,,,
JVASP-102544,Pm2ZnIn,-0.43071,0.0,na,0.0,,,,,
JVASP-100630,ZnIn2GeAs4,0.05808,0.0,na,0.2402,,,,,
JVASP-100853,Ba2Ge3,-0.5313,0.0,na,0.1236,,,,,
JVASP-43605,BeCrO4,-2.12478,1.972,2.324,0.0227,,,,,
JVASP-102924,Ce3Th,0.01409,0.0,na,0.1068,,,,,
JVASP-43871,VO2,-2.45016,0.0,0.0,0.1096,,,,,
JVASP-101982,H2C,-0.11417,6.717,na,0.0622,,,,,
JVASP-103615,MgPb,-0.06972,0.0,na,0.0208,,,,,
JVASP-3240,ZnPbF6,-2.14645,1.894,2.851,0.0,,,,,
JVASP-101770,MnCdO2,-1.19328,0.0,na,0.2207,,,,,
JVASP-103341,KSrI3,-1.71226,3.772,na,0.0,,,,,
JVASP-102695,Pr2Ni3P4,-1.01529,0.0,0.0,0.0,,,,,
JVASP-102994,TmSbRh2,-0.73189,0.0,na,0.0,,,,,
JVASP-103073,Mn4Te3Se,-0.04088,0.0,na,0.1515,,,,,
JVASP-110,BaTiO3,-3.35196,1.749,2.173,0.0187,,,,,
JVASP-102596,Yb3Ce,0.216,0.0,na,0.216,,,,,
JVASP-101017,Sn3Au,0.04372,0.0,na,0.1435,,,,,
JVASP-102746,HfZrV4,0.02068,0.0,na,0.0252,,,,,
JVASP-101433,TbHSe,-1.53585,1.714,na,0.0,,,,,
JVASP-102131,Ti2IrRu,-0.8087,0.0,0.0,0.0197,,,,,
JVASP-104614,Sc3Te,-0.45058,0.0,na,0.1619,,,,,
JVASP-101558,CuPb3,0.2389,0.0,na,0.2389,,,,,
JVASP-103265,LiCuAu2,-0.33358,0.0,na,0.0296,,,,,
JVASP-2778,Sr4P2O,-1.73363,1.221,1.953,0.0,,,,,
JVASP-49807,Hf3N4,-1.7928,1.16,1.963,0.0756,,,,,
JVASP-103558,Na2InAgCl6,-1.16586,0.85,na,0.1306,,,,,
JVASP-101670,Zr2Al3Zn,-0.52101,0.0,0.0,0.0,,,,,
JVASP-15664,ThSi2Cu2,-0.52648,0.0,na,0.0,,,,,
JVASP-100966,GaCuPd2,-0.45181,0.0,0.0,0.0001,,,,,
JVASP-100399,GaAgTe2,-0.21088,0.0,na,0.0283,,,,,
JVASP-103794,H5C2NO,-0.09373,4.194,na,0.3734,,,,,
JVASP-102066,K2TaAgCl6,-1.30685,0.0,na,0.2218,,,,,
JVASP-101904,ZnH4C4O4,-0.76694,4.86,na,0.1079,,,,,
JVASP-103152,CoO2,-0.98759,0.0,na,0.0793,,,,,
JVASP-104561,Dy5Mg,0.00583,0.0,na,0.0343,,,,,
JVASP-100455,VO,-1.83762,0.0,na,0.2523,,,,,
JVASP-102241,Na2TiN2,-0.73475,0.0,na,0.0718,,,,,
JVASP-101237,Al4Ge2W3,-0.09303,0.0,na,0.1267,,,,,
JVASP-100766,YHoIn2,-0.49166,0.0,0.0,0.0142,,,,,
JVASP-102383,K2InHgF6,-2.359,0.0,0.867,0.1108,,,,,
JVASP-100579,K2ScInF6,-3.16425,3.511,na,0.0708,,,,,
JVASP-101797,H4C6O,-0.08001,2.727,na,0.2411,,,,,
JVASP-50378,Sr2CaI6,-1.71919,3.634,4.469,0.0528,,,,,
JVASP-5290,HS7N,0.03176,2.519,na,0.0894,,,,,
JVASP-102181,Sr2FeCoO6,-2.10499,0.0,na,0.0152,,,,,
JVASP-106257,Li3Au,-0.45167,0.0,0.0,0.0014,,,,,
JVASP-52843,K2CuH4Cl4O2,-1.22127,0.652,na,0.0094,,,,,
JVASP-18596,TmAg3,-0.14159,0.0,na,0.1396,,,,,
JVASP-103864,H6C7N2O,-0.15222,2.864,na,0.1419,,,,,
JVASP-103723,Cu2Se,-0.00972,0.282,na,0.0979,,,,,
JVASP-102647,ZnNi4,-0.04771,0.0,na,0.0543,,,,,
JVASP-102925,Dy5Mg,0.01998,0.0,na,0.0485,,,,,
JVASP-100807,SrCdPb,-0.46225,0.0,0.0,0.0,,,,,
JVASP-101382,Rb2LiCeCl6,-2.1582,0.0,na,0.0164,,,,,
JVASP-104144,H4C5S,0.04772,2.199,na,0.1562,,,,,
JVASP-103977,CdH12C8O4,-0.41319,3.764,na,0.1082,,,,,
JVASP-102302,ThSiRu2C,-0.62699,0.0,0.0,0.0,,,,,
JVASP-102545,Pm3Pr,-0.00162,0.0,na,0.0097,,,,,
JVASP-101772,V2O3F3,-2.69265,0.34,na,0.0269,,,,,
JVASP-104502,K2NaCeCl6,-2.10758,0.0,na,0.0604,,,,,
JVASP-103447,MoWC2,-0.30676,0.0,na,0.0,,,,,
JVASP-102133,YbHoPt2,-1.31784,0.0,na,0.0,,,,,
JVASP-102995,YbEuCd2,-0.43153,0.0,na,0.0,,,,,
JVASP-102446,ZrSiRu2,-0.69041,0.184,0.171,0.0,,,,,
JVASP-14093,InSb,0.00724,0.0,na,0.1009,,,,,
JVASP-99653,PrAlCu4,-0.24139,0.0,na,0.0233,,,,,
JVASP-15139,ErB2Ru3,-0.46286,0.0,na,0.0,,,,,
JVASP-100710,Ca2ZnIn,-0.44455,0.0,0.0,0.0029,,,,,
JVASP-103921,ZnH10C7O4,-0.48676,4.547,na,0.1141,,,,,
JVASP-101521,Rb2NaTlI6,-0.95514,0.0,0.469,0.1071,,,,,
JVASP-102804,Al2ZnSe4,-0.86104,0.959,1.882,0.0381,,,,,
JVASP-100401,FeNiPt6,-0.12593,0.0,na,0.0,,,,,
JVASP-100631,ZnInGaO4,-1.79029,1.301,na,0.0155,,,,,
JVASP-103616,MnBeRu2,-0.09914,0.0,na,0.0358,,,,,
JVASP-102500,Ho3Th,0.01564,0.0,na,0.0305,,,,,
JVASP-2688,LiNbS2,-1.4282,0.787,na,0.0,,,,,
JVASP-102747,HfZrN2,-1.95353,0.0,0.0,0.0,,,,,
JVASP-101620,TmBi3,-0.26636,0.0,na,0.1532,,,,,
JVASP-104101,H10C5S,-0.10772,3.68,na,0.0587,,,,,
JVASP-102067,KAuBr3,-0.81392,0.0,na,0.0646,,,,,
JVASP-101238,AsPd4,-0.12482,0.0,na,0.1387,,,,,
JVASP-15665,CeMnNi4,-0.25089,0.0,na,0.0876,,,,,
JVASP-20110,MnPt3,-0.30744,0.0,0.0,0.0151,,,,,
JVASP-4498,FePS3,-0.27897,0.0,0.0,0.1787,,,,,
JVASP-101124,RuRh,0.01944,0.0,na,0.0194,,,,,
JVASP-101018,Sr2MgIn,-0.35028,0.0,0.0,0.0,,,,,
JVASP-48362,Li4Fe3CuO8,-1.65939,0.0,na,0.0913,,,,,
JVASP-18452,BaFe2S4,-1.01477,0.0,0.0,0.0736,,,,,
JVASP-19820,CeCu5,-0.1129,0.0,na,0.0,,,,,
JVASP-19848,SiRh,-0.71814,0.0,0.0,0.0,,,,,
JVASP-101435,UGaAu,-0.31941,0.0,na,0.0,,,,,
JVASP-100808,Sn2GeTe3,-0.23419,0.532,0.514,0.0198,,,,,
JVASP-22719,RbMgF3,-3.503,7.649,10.434,0.029,,,,,
JVASP-101942,HfH8C6O4,-0.70565,2.34,na,0.2667,,,,,
JVASP-100456,BaYCo2O5,-2.24654,0.0,na,0.0802,,,,,
JVASP-103078,TbLiSe2,-1.69822,0.132,0.692,0.0809,,,,,
JVASP-104615,Sr2HgGe,-0.63682,0.057,0.251,0.0,,,,,
JVASP-102598,VAg3F6,-1.75581,0.0,na,0.1575,,,,,
JVASP-102384,K2RuAuF6,-1.92769,0.0,na,0.2247,,,,,
JVASP-101719,GaSbO4,-1.73314,0.787,2.369,0.0,,,,,
JVASP-15621,ThSi2Ni2,-0.81323,0.0,0.0,0.0,,,,,
JVASP-103348,PrSnIr,-0.80742,0.0,na,0.0,,,,,
JVASP-101075,ZnAg,-0.03619,0.0,0.0,0.0089,,,,,
JVASP-101983,H5C2,-0.16053,7.101,na,0.0282,,,,,
JVASP-101798,H4C5S,0.10645,3.224,na,0.215,,,,,
JVASP-19836,TmB2,-0.68865,0.0,0.0,0.0,,,,,
JVASP-102998,Yb2TlIn,-0.55462,0.0,na,0.0047,,,,,
JVASP-102182,Sn3BiTe4,-0.22869,0.0,na,0.0668,,,,,
JVASP-101563,GaPb3,0.04915,0.0,na,0.0491,,,,,
JVASP-1429,NaNO2,-0.95652,2.414,3.896,0.0089,,,,,
JVASP-100898,K2HgAsI6,-0.65703,0.0,0.0,0.0866,,,,,
JVASP-14351,Rb2TeI6,-0.81776,1.424,1.751,0.0,,,,,
JVASP-18716,KHg2,-0.15313,0.0,na,0.0,,,,,
JVASP-100713,Er2TcAg,-0.21866,0.0,na,0.0675,,,,,
JVASP-102304,YbRb2LiCl6,-1.97588,0.0,na,0.0428,,,,,
JVASP-103668,Zn2NiO3,-1.19423,0.083,0.392,0.1351,,,,,
JVASP-100968,DyTmCu2,-0.33601,0.0,0.0,0.0,,,,,
JVASP-103724,Ce2Si3Ni,-0.72464,0.0,na,0.0077,,,,,
JVASP-106261,LiPb3,-0.11617,0.0,na,0.0364,,,,,
JVASP-103266,LiAu3,-0.37914,0.0,na,0.0296,,,,,
JVASP-101523,KRb2AsBr6,-1.29151,2.901,na,0.0015,,,,,
JVASP-102696,PdPb4Au,-0.146,0.0,0.0,0.0,,,,,
JVASP-18597,Zr3Ag,0.00556,0.0,na,0.0995,,,,,
JVASP-101621,Tm3In,-0.2721,0.0,na,0.0,,,,,
JVASP-104503,K2RbYF6,-3.41026,5.581,na,0.1148,,,,,
JVASP-14987,DyAs,-1.58881,0.0,0.0,0.0,,,,,
JVASP-103559,Na2AgRhF6,-1.94191,1.395,2.152,0.104,,,,,
JVASP-103795,H4C7SO2,-0.14773,2.132,na,0.2818,,,,,
JVASP-28834,TeW2S3,-0.56953,0.108,na,0.2244,,,,,
JVASP-48136,LiCr2CoO6,-1.82278,0.0,0.0,0.1227,,,,,
JVASP-101845,H9C13NO,-0.04383,1.353,na,0.1766,,,,,
JVASP-15060,ZrC,-0.96724,0.0,0.0,0.0,,,,,
JVASP-16234,MoAs,-0.18757,0.0,na,0.051,,,,,
JVASP-22686,Na2H6Pt,-0.36116,3.545,4.812,0.0,,,,,
JVASP-102648,Zr2CN,-1.51298,0.0,na,0.0,,,,,
JVASP-103451,MnAlFe2,-0.11743,0.0,0.0,0.0778,,,,,
JVASP-101905,ZnH4C4O4,-0.71778,4.451,na,0.157,,,,,
JVASP-100854,PmSe2,-1.69913,0.0,0.0,0.0,,,,,
JVASP-103865,SnH8C5O4,-0.51159,4.306,na,0.1789,,,,,
JVASP-15464,ErNi2Ge2,-0.67092,0.0,na,0.0,,,,,
JVASP-104563,GaCuNi2,-0.25349,0.0,na,0.0,,,,,