jid,formula,formation_energy_per_atom,optb88vdw_bandgap,mbj_bandgap,ehull,spacegroup_number,natoms,volume,bulk_modulus_kv,shear_modulus_gv
JVASP-99535,KHg3,-0.07595,0.0,0.0,0.0389,,,,,
JVASP-94900,AgPPd5,-0.27039,0.0,na,0.0055,,,,,
JVASP-100057,ZnMoF6,-2.48397,0.0,na,0.0,,,,,
JVASP-92632,YbZn2Sb2,-0.48426,0.0,na,0.0,,,,,
JVASP-93905,TiH2,-0.41165,0.0,na,0.0932,,,,,
JVASP-42678,Mn8O13F3,-1.88894,0.0,na,0.0,,,,,
JVASP-99160,AlTlBr4,-1.12949,4.043,na,0.0,,,,,
JVASP-50950,Y2MgNi2,-0.4507,0.0,na,0.0,,,,,
JVASP-100219,PrDy3,0.01989,0.0,0.0,0.0268,,,,,
JVASP-99309,RbCuPdSe5,-0.4426,0.971,na,0.0,,,,,
JVASP-96830,SiC,-0.24031,2.231,na,0.0039,,,,,
JVASP-50468,Li2CuSnO4,-1.64906,0.44,na,0.0687,,,,,
JVASP-100261,Yb3Pb,-0.44357,0.0,na,0.0239,,,,,
JVASP-99724,Rb2LiBiF6,-2.84553,5.098,na,0.0,,,,,
JVASP-93860,HoCdNi4,-0.40658,0.0,na,0.0,,,,,
JVASP-93762,ThSiSe,-1.24128,0.0,na,0.0,,,,,
JVASP-100358,Pr2NiGe3,-0.66291,0.0,na,0.117,,,,,
JVASP-94323,CeSe2,-1.40546,0.041,na,0.3116,,,,,
JVASP-4164,Tl3VO4,-1.65594,2.564,2.701,0.0,,,,,
JVASP-100463,CaCrF6,-3.1674,0.0,na,0.0,,,,,
JVASP-91459,K2CaN4O8,-0.91346,2.013,na,0.2807,,,,,
JVASP-99389,PmSm3,0.00844,0.0,na,0.0185,,,,,
JVASP-99954,MnV,-0.13936,0.0,na,0.153,,,,,
JVASP-99762,CeEr3,0.06923,0.0,na,0.0719,,,,,
JVASP-92544,SrTcO3,-2.33387,0.0,na,0.0184,,,,,
JVASP-100638,TaAu,-0.042,0.0,na,0.0056,,,,,
JVASP-96894,SmCu2Ge2,-0.52432,0.0,na,0.0,,,,,
JVASP-1501,KPrTe2,-1.48943,1.265,1.781,0.0,,,,,
JVASP-46763,Li2Co3SnO8,-1.5051,0.0,0.12,0.1107,,,,,
JVASP-100406,DyHoMn4,0.08765,0.0,na,0.1069,,,,,
JVASP-105605,K2PrCuCl6,-1.79542,2.317,na,0.1084,,,,,
JVASP-93361,TiS2,-1.41431,0.0,na,0.0131,,,,,
JVASP-99031,Na6Be8O11,-2.46816,3.838,na,0.0304,,,,,
JVASP-106189,Cr2OF2,-1.85981,0.708,na,0.3103,,,,,
JVASP-100003,DyThCN,-1.11518,0.0,na,0.0569,,,,,
JVASP-100593,NiS2,-0.33352,0.0,0.0,0.0256,,,,,
JVASP-94962,Al2ZnS4,-1.1612,3.262,na,0.0045,,,,,
JVASP-93307,YbLiCu2P2,-0.74649,0.0,na,0.0,,,,,
JVASP-100311,ZrVMo,-0.11629,0.0,na,0.0,,,,,
JVASP-93713,HfTa2N3,-1.10212,0.0,na,0.4199,,,,,
JVASP-15995,NaTiS2,-1.50238,0.0,na,0.0,,,,,
JVASP-20099,GaSb,-0.14862,0.0,0.593,0.0,,,,,
JVASP-94857,Rb2TeSe4,-0.69185,0.79,na,0.0,,,,,
JVASP-7379,Cl,1.6885,0.0,na,0.0,,,,,
JVASP-99580,Mn2SnS4,-0.52789,0.0,0.0,0.0766,,,,,
JVASP-48345,Li2VCrO4,-2.31526,0.0,na,0.0653,,,,,
JVASP-15402,TbCu2Ge2,-0.50099,0.0,na,0.0,,,,,
JVASP-99909,TlBiSe2,-0.3148,0.0,na,0.1551,,,,,
JVASP-93414,CeThO4,-3.92345,1.931,na,0.0341,,,,,
JVASP-93255,Ca3AsP,-0.73587,0.278,na,0.4076,,,,,
JVASP-100522,ErMgIn,-0.3877,0.0,na,0.0,,,,,
JVASP-100131,BaCuS2,-1.28555,0.0,na,0.0,,,,,
JVASP-96947,Na2Ca3Si6O16,-2.98906,4.424,na,0.0,,,,,
JVASP-95318,KAsOF4,-2.31121,3.687,na,0.0,,,,,
JVASP-100170,Cu3Rh,0.0433,0.0,0.0,0.0433,,,,,
JVASP-99725,Rb2TlGaI6,-0.86204,0.339,na,0.0954,,,,,
JVASP-99665,InCN2,0.12894,0.305,na,0.1388,,,,,
JVASP-101372,RbErSeCl2O3,-2.12006,4.181,na,0.0,,,,,
JVASP-100058,CeVO3,-3.02886,0.0,na,0.043,,,,,
JVASP-99536,LaPrTl2,-0.43073,0.0,na,0.0013,,,,,
JVASP-92682,BaSi3Pt,-0.58873,0.0,na,0.0215,,,,,
JVASP-7406,H,2.51359,5.137,na,0.0,,,,,
JVASP-14825,Be,1e-05,0.0,na,0.0,,,,,
JVASP-99860,CaMnSb2,-0.40284,0.0,na,0.1016,,,,,
JVASP-100220,PmEuPd2,-0.84766,0.0,na,0.0,,,,,
JVASP-95620,CaB3H3O7,-2.26185,6.136,na,0.0,,,,,
JVASP-76232,Y2MgCu2,-0.29974,0.0,na,0.0,,,,,
JVASP-99763,Eu2HgSb,-0.61052,0.0,na,0.0,,,,,
JVASP-99390,TaOs3,-0.16308,0.0,na,0.0,,,,,
JVASP-52831,NaH3C2O5,-1.25176,3.232,na,0.0535,,,,,
JVASP-99163,Li6Br3N,-1.21066,2.598,na,0.0386,,,,,
JVASP-92589,PrFeGe3,-0.50384,0.0,na,0.0,,,,,
JVASP-100262,ZnIn3,0.08324,0.0,na,0.0872,,,,,
JVASP-94324,CeSe2,-1.37349,0.152,na,0.3436,,,,,
JVASP-46329,VGaO3,-2.11375,0.0,na,0.1293,,,,,
JVASP-15750,ScRu3C,-0.28898,0.0,0.0,0.0017,,,,,
JVASP-99955,MnHgS2,-0.2322,0.0,na,0.2389,,,,,
JVASP-99815,La3Ho,0.02026,0.0,na,0.058,,,,,
JVASP-91390,NaCo2O4,-1.40306,0.0,na,0.0127,,,,,
JVASP-92724,SrAl2Ge2,-0.49049,0.0,na,0.0,,,,,
JVASP-100312,ZrTiCo4,-0.34777,0.0,0.0,0.0089,,,,,
JVASP-93906,HoSnGe,-0.62566,0.0,na,0.0,,,,,
JVASP-96764,S7N6O8,-0.235,2.066,na,0.3928,,,,,
JVASP-99491,Mg5Hg,-0.03428,0.0,0.0,0.0496,,,,,
JVASP-43113,Li2NiSnO4,-1.69325,0.974,na,0.0499,,,,,
JVASP-93763,CeNiGe,-0.75027,0.05,na,0.0433,,,,,
JVASP-48295,LiMnP3HO10,-1.99552,0.404,na,0.0918,,,,,
JVASP-51466,NiRh2O4,-0.82828,0.0,0.0,0.0249,,,,,
JVASP-14868,Te2Rh,-0.36728,0.0,na,0.0106,,,,,
JVASP-105608,ZrZnPd2,-0.65834,0.0,na,0.0,,,,,
JVASP-100005,DyMnFe,-0.01132,0.0,na,0.057,,,,,
JVASP-7517,Na,1.05085,0.629,na,0.0,,,,,
JVASP-99313,NaErP4O12,-2.53971,5.908,na,0.0,,,,,
JVASP-94901,K2CuF4,-2.41412,0.0,na,0.0553,,,,,
JVASP-96895,YbCu2Ge2,-0.47816,0.0,0.0,0.0,,,,,
JVASP-96831,Pr5C2Cl9,-1.95206,1.492,na,0.0,,,,,
JVASP-1465,ErTlS2,-1.62371,1.542,2.251,0.0,,,,,
JVASP-100171,Dy2TlZn,-0.35614,0.0,na,0.0104,,,,,
JVASP-93309,ErPt5,-0.66102,0.0,na,0.0832,,,,,
JVASP-99726,Rb3TiF6,-3.18751,0.0,na,0.0,,,,,
JVASP-48134,LiP2WO8,-2.25241,0.0,2.498,0.0258,,,,,
JVASP-99764,Eu2MgTl,-0.26432,0.0,na,0.0,,,,,
JVASP-95149,SrH16O10,-1.11567,3.856,na,0.0271,,,,,
JVASP-99861,MoBr3,-0.5545,0.037,na,0.011,,,,,
JVASP-94328,CeSe2,-1.51279,0.757,na,0.2043,,,,,
JVASP-100221,PmLuIn2,-0.448,0.0,na,0.0,,,,,
JVASP-100263,Yb3Er,0.10947,0.0,na,0.1104,,,,,
JVASP-92633,CaFe2As2,-0.57074,0.0,na,0.0001,,,,,
JVASP-99666,Li2TiCrO4,-2.54089,0.0,na,0.0491,,,,,
JVASP-106191,AcCrO3,-2.9778,0.092,na,0.0,,,,,
JVASP-93861,ErMnNi4,-0.30276,0.0,na,0.0625,,,,,
JVASP-100359,NiPd,0.06853,0.0,na,0.0685,,,,,
JVASP-22717,LiFeF4,-2.37548,0.0,0.0,0.1992,,,,,
JVASP-20076,FeSe,-0.09207,0.0,na,0.199,,,,,
JVASP-101439,GaFe3N,-0.21577,0.0,0.0,0.0148,,,,,
JVASP-100132,CuO,-0.44412,0.0,na,0.2879,,,,,
JVASP-96950,Na2MgH8S2O12,-1.52189,5.654,na,0.002,,,,,
JVASP-93481,TaCrO4,-2.64407,0.0,na,0.0303,,,,,
JVASP-15681,CoCu2GeS4,-0.35508,0.0,0.0,0.0788,,,,,
JVASP-99441,SiAg2P2,-0.06615,0.213,0.81,0.0132,,,,,
JVASP-3951,Rb2PdBr6,-1.05862,0.515,1.343,0.0,,,,,
JVASP-100408,Eu2Co5Ge3,-0.45686,0.0,na,0.0,,,,,
JVASP-99034,LiBPt3,-0.49404,0.0,na,0.0231,,,,,
JVASP-14672,SiNi,-0.42716,0.0,0.0,0.0,,,,,
JVASP-14826,Dy,0.01266,0.0,0.0,0.0,,,,,
JVASP-43857,Li2VO2F,-2.61344,0.0,na,0.1204,,,,,
JVASP-51150,NbOsPb,0.73413,0.0,0.0,0.854,,,,,
JVASP-100313,ZrSc,-0.00235,0.0,0.0,0.0149,,,,,
JVASP-99492,SrCa3,0.02218,0.0,na,0.0393,,,,,
JVASP-101392,Cd3Bi,0.05495,0.0,na,0.0624,,,,,
JVASP-99816,Mg3Cr,0.29605,0.0,na,0.2961,,,,,
JVASP-100464,Cr2HO4,-1.87165,0.0,0.0,0.0141,,,,,
JVASP-92798,CaCu2Ge2,-0.40689,0.0,na,0.0,,,,,
JVASP-100639,Ta2CrSi6,-0.23691,0.0,0.0,0.058,,,,,
JVASP-94963,Al2ZnS4,-1.05253,0.627,na,0.1132,,,,,
JVASP-100594,Ac2MgTl,-0.23774,0.0,na,0.0,,,,,
JVASP-102084,Na2AlInF6,-2.8645,2.968,na,0.2266,,,,,
JVASP-92545,TmAu4,-0.64599,0.0,na,0.0,,,,,
JVASP-15203,SmBPd3,-0.58181,0.0,0.0,0.1338,,,,,
JVASP-95456,H2O,-0.98953,5.715,8.571,0.0062,,,,,
JVASP-93363,TbMgNi,-0.36668,0.0,na,0.0117,,,,,
JVASP-7544,P,3.7854,2.206,na,0.0,,,,,
JVASP-93256,CdHCl3,0.0989,0.0,na,0.9497,,,,,
JVASP-101373,Ho10Si17,-0.63052,0.0,na,0.0,,,,,
JVASP-99620,KNbO2F,-2.66281,0.0,0.0,0.0945,,,,,
JVASP-99910,VCr2Te4,-0.17995,0.0,na,0.038,,,,,
JVASP-100524,NdTa2O6,-3.18222,0.0,na,0.0726,,,,,
JVASP-16059,Ho2Cr2C3,-0.41185,0.0,na,0.0,,,,,
JVASP-15788,BaB2Rh2,-0.50242,0.0,na,0.0,,,,,
JVASP-96765,SrCl2O6,-0.81134,5.34,na,0.0721,,,,,
JVASP-93416,Ag2S,-0.03393,0.111,na,0.0417,,,,,
JVASP-100060,LiNiO2,-1.39395,0.0,na,0.0862,,,,,
JVASP-99582,InAgTe2,-0.15841,0.0,0.0,0.0737,,,,,
JVASP-99956,MnCd2Te3,-0.25605,0.336,na,0.0636,,,,,
JVASP-14569,NbSi2,-0.41589,0.0,na,0.0,,,,,
JVASP-95325,BaFeO3,-2.13476,0.0,0.0,0.0003,,,,,
JVASP-18523,Ba3SnO,-1.55559,0.0,0.0,0.0,,,,,
JVASP-100264,ZrSbRu2,-0.36922,0.0,0.076,0.0491,,,,,
JVASP-92683,In3Pt2,-0.44012,0.0,na,0.0201,,,,,
JVASP-93808,BC5,0.1782,0.0,na,0.1996,,,,,
JVASP-14198,UPdSe3,-0.85467,0.0,na,0.0,,,,,
JVASP-47356,Li2Si2WO7,-2.4958,0.0,na,0.1378,,,,,
JVASP-94329,CeSe2,-1.45765,0.348,na,0.2594,,,,,
JVASP-93961,NdSi2,-0.54978,0.0,na,0.0,,,,,
JVASP-92725,Rb2Te2Pt,-0.86337,0.966,na,0.0,,,,,
JVASP-92634,ZrPbO3,-2.66426,2.432,na,0.0559,,,,,
JVASP-95638,Ho2S3,-2.25014,0.647,na,0.0,,,,,
JVASP-7547,P,1.02053,3.364,na,0.0,,,,,
JVASP-99667,ErCl3,-2.2383,3.29,na,0.0,,,,,
JVASP-99862,Tl3VF6,-2.32602,0.0,na,0.0,,,,,
JVASP-102195,MgIn2Se4,-0.76393,0.356,na,0.0,,,,,
JVASP-99765,Eu2CdGe,-0.52733,0.0,na,0.0993,,,,,
JVASP-100409,CuNi,0.00699,0.0,na,0.0116,,,,,
JVASP-96896,LaAgPb,-0.5281,0.0,na,0.0,,,,,
JVASP-100360,NdZnSn,-0.42616,0.0,na,0.2423,,,,,
JVASP-100222,PmNdRu2,-0.14837,0.0,na,0.0,,,,,
JVASP-94858,HgPd5Se,-0.13066,0.0,na,0.0,,,,,
JVASP-100006,Cu3Ge,0.16583,0.0,na,0.1658,,,,,
JVASP-99391,TePb3,-0.02715,0.0,0.0,0.1877,,,,,
JVASP-99537,LiCd2Ni,-0.1711,0.0,0.0,0.0,,,,,
JVASP-93862,U,0.20092,0.0,na,0.0,,,,,
JVASP-99185,BaH2O2,-1.86887,4.726,na,0.0204,,,,,
JVASP-100314,ZrTiNi2H6,-0.3782,0.0,na,0.0211,,,,,
JVASP-101440,ZrTiPb2O6,-2.60106,2.621,2.83,0.0212,,,,,
JVASP-93364,ZrBrN,-1.80576,1.59,na,0.0,,,,,
JVASP-100133,MgSnO3,-2.28215,2.793,na,0.0091,,,,,
JVASP-100465,LiVF3,-2.78149,1.459,na,0.1255,,,,,
JVASP-99727,Rb2YHgBr6,-1.48483,0.0,na,0.1006,,,,,
JVASP-101393,CePbAu2,-0.60631,0.0,na,0.0,,,,,
JVASP-4855,ErAgP2Se6,-0.54348,1.651,2.004,0.0,,,,,
JVASP-102085,Rb2TlBiF6,-2.5163,3.139,na,0.0488,,,,,
JVASP-93310,LaMn2Ni3,-0.14522,0.0,na,0.096,,,,,
JVASP-99314,CaCuP2O7,-2.30896,0.631,na,0.0,,,,,
JVASP-94903,In2Ni3Se2,-0.31524,0.0,na,0.0,,,,,
JVASP-99622,GaFe2,0.11129,0.0,na,0.231,,,,,
JVASP-15566,ErSi2Rh2,-1.05097,0.0,0.0,0.0,,,,,
JVASP-99818,Mg5Ag,-0.07526,0.0,na,0.0222,,,,,
JVASP-15204,YMgNi4,-0.44533,0.0,na,0.0,,,,,
JVASP-102144,ThAlCo,-0.55794,0.0,na,0.0,,,,,
JVASP-7559,S,3.281,0.0,na,0.0,,,,,
JVASP-96837,C,0.0088,0.543,na,0.0,,,,,
JVASP-100266,Zr3Cd,-0.09095,0.0,na,0.0075,,,,,
JVASP-93714,LuZn2,-0.40779,0.0,na,0.0,,,,,
JVASP-14650,ThIr5,-0.46068,0.0,0.0,0.0,,,,,
JVASP-100061,Tl3VO4,-1.65594,2.544,na,0.0,,,,,
JVASP-99442,Y3Mn3Ga2Ge,-0.34927,0.0,na,0.1658,,,,,
JVASP-92546,CeSi3Os,-0.58968,0.0,na,0.0,,,,,
JVASP-93907,NaUO4,-2.63503,0.0,na,0.0899,,,,,
JVASP-93482,NbCrO4,-2.41259,0.0,na,0.0783,,,,,
JVASP-92801,Li2PdO2,-1.53432,1.342,na,0.0,,,,,
JVASP-94330,CeSe2,-1.52279,0.652,na,0.1943,,,,,
JVASP-95150,H3ClO5,-0.35207,5.542,na,0.1504,,,,,
JVASP-99957,MnCoSn4,0.03719,0.0,na,0.0696,,,,,
JVASP-100640,Ta2InS4,-1.059,0.0,na,0.0,,,,,
JVASP-99036,In3Sb5O12,-1.54131,2.518,na,0.0017,,,,,
JVASP-94964,Al2ZnS4,-1.05858,1.677,na,0.1071,,,,,
JVASP-93962,SmCo5,-0.08989,0.0,na,0.0,,,,,
JVASP-95457,Na24In5O15,-1.3894,0.0,na,0.0145,,,,,
JVASP-100007,Cu2BrCl,-0.22102,0.423,na,0.1382,,,,,
JVASP-100361,NbPd,-0.13294,0.0,na,0.2006,,,,,
JVASP-92590,NdSi2Ir2,-0.85734,0.0,na,0.1496,,,,,
JVASP-99728,Rb2LiNdCl6,-2.189,4.796,na,0.0169,,,,,
JVASP-95639,Na5TaO5,-2.20416,2.655,na,0.0,,,,,
JVASP-100223,PmRh3,-0.38907,0.0,na,0.0237,,,,,
JVASP-99911,TmAlCo4,-0.28955,0.0,0.0,0.0701,,,,,
JVASP-101441,ZrAl6Mo,-0.37454,0.0,0.0,0.0286,,,,,
JVASP-93863,HoNi4Au,-0.44258,0.0,na,0.0,,,,,
JVASP-100595,AlGaIr2,-0.63942,0.0,0.0,0.0161,,,,,
JVASP-96897,CeAgPb,-0.3464,0.0,na,0.0,,,,,
JVASP-99623,FeMo3As4,-0.12639,0.0,na,0.109,,,,,
JVASP-7562,S,0.71781,1.207,na,0.0,,,,,
JVASP-94860,Tl2Pd3S2,-0.36805,0.0,na,0.0,,,,,
JVASP-99538,Tb3La,0.03161,0.0,na,0.0456,,,,,
JVASP-99493,TaSiRu2,-0.38441,0.0,0.0,0.0265,,,,,
JVASP-99821,MnPd2Au,-0.13965,0.0,na,0.0295,,,,,
JVASP-101394,Ce2CdIn,-0.23751,0.0,na,0.063,,,,,
JVASP-93809,DySiNi4,-0.60982,0.0,na,0.0,,,,,
JVASP-100172,GaGe3,0.28789,0.0,na,0.291,,,,,
JVASP-99863,Ba2UInO6,-3.00234,1.066,na,0.0,,,,,
JVASP-14716,ThSn3,-0.44187,0.0,na,0.0,,,,,
JVASP-100410,Cu3Pd2,-0.10665,0.0,na,0.0067,,,,,
JVASP-99583,K4NaCl5,-2.04397,5.25,na,0.0203,,,,,
JVASP-15015,TbGa2,-0.65699,0.0,0.0,0.0,,,,,
JVASP-28453,WSe2,-0.51795,1.126,1.688,0.0267,,,,,
JVASP-101374,AlTeCl7,-1.04235,3.162,na,0.0,,,,,
JVASP-93311,NaZnN,-0.11702,0.0,na,0.0,,,,,
JVASP-92726,Lu2AlNi2,-0.64936,0.0,na,0.0,,,,,
JVASP-99443,U2PS,-1.25476,0.0,na,0.0411,,,,,
JVASP-100529,SmAgGe,-0.6624,0.0,na,0.0,,,,,
JVASP-96952,Ba2ZnB2O6,-2.69691,3.528,na,0.0,,,,,
JVASP-93257,CdCu2Se2,-0.21247,0.0,na,0.0916,,,,,
JVASP-1468,CaCN2,-1.02425,3.653,5.127,0.0,,,,,
JVASP-3954,SBr,-0.05482,1.707,2.638,0.0,,,,,
JVASP-100062,Sr2NiTeO6,-1.88376,0.927,na,0.1246,,,,,
JVASP-94332,CeSe2,-1.11628,0.599,na,0.6008,,,,,
JVASP-92684,SnN2F2,-1.1542,2.342,na,0.2928,,,,,
JVASP-99766,EuCl2,-2.00792,0.0,na,0.1219,,,,,
JVASP-14827,Cr,0.39199,0.0,0.0,0.0,,,,,
JVASP-17356,ZnBiF6,-2.22655,0.0,0.411,0.0137,,,,,
JVASP-16157,BaNi2P2,-0.82108,0.0,na,0.0,,,,,
JVASP-95331,CeAl8Cu4,-0.30304,0.0,na,0.0134,,,,,
JVASP-99190,Na3VS3O,-1.50588,1.785,na,0.0002,,,,,
JVASP-100268,Sr2ScOsO6,-2.734,0.0,na,0.0,,,,,
JVASP-99315,La2B4Rh5,-0.69298,0.0,na,0.0,,,,,
JVASP-19863,ScNi2,-0.56607,0.0,0.0,0.0,,,,,
JVASP-15826,LiMgSnAu,-0.4171,0.0,na,0.1077,,,,,
JVASP-48346,Li5Mn3Cr2O10,-2.07071,0.0,na,0.0455,,,,,
JVASP-93764,TmB2Rh3,-0.70646,0.0,na,0.0151,,,,,
JVASP-100134,Li2BiS2,-0.94969,0.0,na,0.1161,,,,,
JVASP-3231,BaLiP,-1.03578,0.977,1.667,0.0,,,,,
JVASP-100316,YbTmSe2,-1.97817,0.0,na,0.0,,,,,
JVASP-93908,ErCu4Ag,-0.26944,0.0,na,0.0,,,,,
JVASP-7565,HS,0.87841,0.0,na,0.9864,,,,,
JVASP-100224,PmTmRu2,-0.31351,0.0,na,0.0,,,,,
JVASP-96769,Ba3P4O13,-2.77919,5.446,na,0.012,,,,,
JVASP-94905,PrIn5Ir,-0.39788,0.0,na,0.0,,,,,
JVASP-101442,ZrInAu2,-0.41511,0.0,na,0.0797,,,,,
JVASP-28414,MoSe2,-0.6312,1.218,na,0.0403,,,,,
JVASP-14570,DyMn2,0.10172,0.0,0.0,0.1034,,,,,
JVASP-102145,TbAgAs2,-0.7718,0.0,na,0.0247,,,,,
JVASP-102087,Rb2NaLuCl6,-2.22148,5.334,na,0.0,,,,,
JVASP-93417,HfNbB4,-0.83705,0.0,na,0.0,,,,,
JVASP-99392,Tm3Ge,-0.32443,0.0,0.0,0.2328,,,,,
JVASP-99494,YbTaO3,-3.1223,0.0,na,0.0275,,,,,
JVASP-16125,ThSiAu,-0.76457,0.0,0.0,0.0,,,,,
JVASP-15751,PrTe,-1.38875,0.0,0.0,0.0887,,,,,
JVASP-50952,Tm2TiO5,-3.63748,3.087,3.529,0.0665,,,,,
JVASP-100467,LiFe2Cl2O2,-1.27717,0.0,0.0,0.1408,,,,,
JVASP-99624,Co4H,0.02709,0.0,na,0.0366,,,,,
JVASP-100641,SmYCo2Ni2,-0.31134,0.0,na,0.0353,,,,,
JVASP-94267,MnMoO4,-1.89746,0.0,na,0.0831,,,,,
JVASP-50469,Li2TiTe3O12,-1.56002,1.627,na,0.0347,,,,,
JVASP-99539,NaAc3,0.18161,0.0,na,0.1932,,,,,
JVASP-101395,ErCdHg2,-0.24575,0.0,na,0.0,,,,,
JVASP-102197,Li3Tl2Cd,-0.25943,0.0,na,0.0266,,,,,
JVASP-99729,Rb2TlHgBr6,-1.01158,0.0,na,0.0314,,,,,
JVASP-93259,CuGeI3,-0.20584,1.214,na,0.0846,,,,,
JVASP-51107,NbCrCo,0.7885,0.0,0.0,0.9211,,,,,
JVASP-1930,FeBr2,-0.43331,0.0,0.0,0.0,,,,,
JVASP-95640,RbPd2F5,-1.72744,0.259,na,0.0,,,,,
JVASP-96838,RbMnCl3,-1.517,1.024,na,0.0,,,,,
JVASP-102856,K2LiTiF6,-3.29093,0.0,6.59,0.0,,,,,
JVASP-92547,LaGe3Ru,-0.61775,0.0,na,0.0,,,,,
JVASP-93312,Ca2Mg,0.0212,0.0,na,0.1042,,,,,
JVASP-94862,CeZn2Au4,-0.5043,0.0,na,0.0,,,,,
JVASP-99864,Ba2HoUO6,-3.51732,0.958,na,0.0,,,,,
JVASP-93483,MnTeO4,-1.32903,0.0,na,0.1324,,,,,
JVASP-14651,YC2,-0.37354,0.0,0.629,0.0277,,,,,
JVASP-20077,HoHg,-0.38644,0.0,0.0,0.0058,,,,,
JVASP-96900,CeGe2Pt2,-0.87614,0.0,na,0.0,,,,,
JVASP-7577,Si,4.66962,0.0,na,0.0,,,,,
JVASP-14016,CeNi,-0.36195,0.0,na,0.0,,,,,
JVASP-100362,NbAlVC,-0.48977,0.0,na,0.0371,,,,,
JVASP-95463,H5C2ClO,-0.32041,5.381,na,0.2017,,,,,
JVASP-14869,DyRh,-0.93157,0.0,na,0.0,,,,,
JVASP-92635,CaSi3Ir,-0.6023,0.0,na,0.0,,,,,
JVASP-100270,Tb2CoSi2,-0.73314,0.0,na,0.0184,,,,,
JVASP-100010,CoNiAs2,-0.24423,0.0,na,0.0208,,,,,
JVASP-100226,Sm2HgPb,-0.45957,0.0,na,0.0,,,,,
JVASP-99038,ThZr2F12,-4.0428,5.81,na,0.0,,,,,
JVASP-99495,Yb3Dy,0.10386,0.0,na,0.1051,,,,,
JVASP-103027,Yb4SmS5,-2.39074,0.0,na,0.0108,,,,,
JVASP-99317,LaAl2Ag3,-0.285,0.0,na,0.0775,,,,,
JVASP-100174,Eu2ZnGa,-0.50785,0.0,na,0.0,,,,,
JVASP-103197,Rb2HgRuF6,-2.08566,0.0,na,0.0625,,,,,
JVASP-15319,YbSnPd,-0.90788,0.0,na,0.0007,,,,,
JVASP-18667,TaGaCo2,-0.33441,0.0,0.0,0.0,,,,,
JVASP-15499,ZrGeS,-1.24071,0.0,na,0.0,,,,,
JVASP-103101,ErAgS2,-1.33769,0.0,0.0,0.0881,,,,,
JVASP-99822,MnZnPt2,-0.39761,0.0,0.0,0.0,,,,,
JVASP-100135,CuNiO2,-0.72782,0.0,na,0.1032,,,,,
JVASP-99625,Be2CoSi,-0.14227,0.0,na,0.1461,,,,,
JVASP-102942,Hf3Ag,0.07848,0.0,na,0.1769,,,,,
JVASP-99912,TiZnNi2,-0.37242,0.0,na,0.0479,,,,,
JVASP-93811,Zr2TaN3,-1.13341,0.0,na,0.5999,,,,,
JVASP-99730,Rb2LiTmCl6,-2.23293,5.234,na,0.0,,,,,
JVASP-2035,MnI2,-0.38468,1.047,na,0.0,,,,,
JVASP-100530,SmIn5Rh,-0.43545,0.0,na,0.0,,,,,
JVASP-101443,YbAgS2,-1.20617,0.0,na,0.053,,,,,
JVASP-100642,SmErMn4,0.15355,0.0,na,0.1688,,,,,
JVASP-15453,YSi2Pd2,-0.89586,0.0,0.0,0.0,,,,,
JVASP-43858,Mn6O5F7,-2.12804,0.033,na,0.0,,,,,
JVASP-94906,CaNi5H,-0.16547,0.0,na,0.0656,,,,,
JVASP-92548,SnCCl3,0.82874,0.0,na,1.6016,,,,,
JVASP-99768,Ga3Sn,0.06246,0.0,na,0.0625,,,,,
JVASP-99959,MnAlNi6,-0.26228,0.0,na,0.0062,,,,,
JVASP-7580,Si,2.93479,0.286,na,0.0,,,,,
JVASP-2334,KUO3,-3.15858,0.518,2.881,0.0,,,,,
JVASP-100318,ZnPd2,-0.40577,0.0,na,0.052,,,,,
JVASP-92802,NiAg2O2,-0.57473,0.0,na,0.0013,,,,,
JVASP-14944,NbO2,-2.62116,0.0,na,0.0,,,,,
JVASP-100596,Ga3Te,0.00704,0.0,na,0.1822,,,,,
JVASP-93715,KPtN,-0.23138,0.0,na,0.0,,,,,
JVASP-96953,H8C3N2O,-0.29846,4.924,na,0.085,,,,,
JVASP-96770,Ca2SiIr2,-0.81011,0.0,na,0.0,,,,,
JVASP-16158,USiAu,-0.19328,0.0,0.0,0.1072,,,,,
JVASP-100063,LiCoO2,-1.65511,1.008,na,0.0418,,,,,
JVASP-93313,Ca2Mg,7e-05,0.0,na,0.0831,,,,,
JVASP-15658,YbSi2Cu2,-0.46747,0.0,0.0,0.0,,,,,
JVASP-99867,NbCoPb2O6,-1.73921,0.573,na,0.0337,,,,,
JVASP-14829,Cr,0.0,0.0,0.0,0.0,,,,,
JVASP-92591,NdCoSi3,-0.59871,0.0,na,0.0,,,,,
JVASP-52273,Mg9CuO10,-2.74518,0.308,na,0.0591,,,,,
JVASP-20100,TaNi2,-0.35811,0.0,0.0,0.0,,,,,
JVASP-100012,Cr5NiAs3,0.00892,0.0,na,0.13,,,,,
JVASP-101375,Fe21W2C6,0.0232,0.0,na,0.0727,,,,,
JVASP-103281,MgSbRh2,-0.47499,0.0,na,0.0,,,,,
JVASP-99191,KPPbS4,-0.75309,2.362,na,0.0,,,,,
JVASP-42679,Fe3O2F4,-1.80393,0.0,na,0.1028,,,,,
JVASP-100412,CrNi,0.13015,0.0,na,0.159,,,,,
JVASP-93418,MnFeAs,-0.07741,0.0,na,0.0655,,,,,
JVASP-96901,Sm2InPd2,-0.86509,0.0,na,0.0,,,,,
JVASP-100363,Nb6GePt,-0.2962,0.0,na,0.045,,,,,
JVASP-100468,RbSrCO3F,-2.56896,4.248,7.361,0.0001,,,,,
JVASP-92727,Y2BiO2,-2.89289,0.0,na,0.0,,,,,
JVASP-102198,Li3ErBr6,-1.76447,4.368,na,0.0,,,,,
JVASP-99393,Y2GaAg,-0.52532,0.0,0.0,0.0152,,,,,
JVASP-99540,NdCdHg2,-0.31363,0.0,0.0,0.0,,,,,
JVASP-93486,VOF,-2.57675,0.633,na,0.1447,,,,,
JVASP-102088,Rb2TlIrF6,-2.17703,2.215,2.302,0.061,,,,,
JVASP-102146,CeSiGe,-0.5437,0.0,na,0.0325,,,,,
JVASP-100272,HfAsPd,-0.74001,0.0,na,0.1264,,,,,
JVASP-95153,H4SO5,-1.09966,5.926,8.321,0.0,,,,,
JVASP-95332,ZnPb2F6,-2.48778,4.042,na,0.0,,,,,
JVASP-99823,Na3Ag,-0.02702,0.0,na,0.0233,,,,,
JVASP-52832,NaAsH4O5,-1.2645,4.0,na,0.0,,,,,
JVASP-50056,YScO3,-3.83099,4.433,5.599,0.0067,,,,,
JVASP-15752,DySe,-1.29626,0.0,na,0.5159,,,,,
JVASP-103105,DyUN2,-1.70377,0.0,na,0.0311,,,,,
JVASP-15156,DyBRh3,-0.80292,0.0,0.0,0.0,,,,,
JVASP-102858,K2LiErCl6,-2.18728,5.19,na,0.0,,,,,
JVASP-93909,PrSiGe,-0.58645,0.0,na,0.0056,,,,,
JVASP-15233,NaVSe2,-0.91611,0.0,0.0,0.0,,,,,
JVASP-100136,AgAsO3,-0.92943,0.331,na,0.0,,,,,
JVASP-99960,Mn2CuNiSb2,0.02675,0.0,na,0.1183,,,,,
JVASP-101445,YThN2,-1.8452,0.0,na,0.0221,,,,,
JVASP-1933,CdCl2,-1.11527,3.342,5.575,0.0,,,,,
JVASP-15278,TbBRh3,-0.79207,0.0,0.0,0.0,,,,,
JVASP-103198,K3RhF6,-2.50553,2.205,na,0.0,,,,,
JVASP-99318,ErPtF7,-2.71115,2.346,na,0.0,,,,,
JVASP-94863,Cr3S4,-0.72618,0.0,na,0.0,,,,,
JVASP-100320,Zr2Te3,-0.93104,0.0,na,0.0,,,,,
JVASP-100064,ZrMnO3,-2.73005,1.465,na,0.0814,,,,,
JVASP-99868,HoMgTl,-0.32793,0.0,na,0.0,,,,,
JVASP-18470,Cr3Se4,-0.477,0.0,na,0.0184,,,,,
JVASP-99041,Rb3BiO3,-1.5148,3.256,na,0.0,,,,,
JVASP-92685,Ca2CdPt2,-0.91475,0.0,na,0.0,,,,,
JVASP-15454,CaCuO2,-2.01319,0.0,na,0.0263,,,,,
JVASP-15996,PtO,-0.39467,0.0,0.0,0.1108,,,,,
JVASP-50610,LiSiBiO4,-2.28194,3.651,4.768,0.0207,,,,,
JVASP-314,TiO2,-3.2447,2.027,2.478,0.0185,,,,,
JVASP-11946,CoNi,0.16115,0.0,na,0.183,,,,,
JVASP-103030,Zn2GaCuTe4,-0.35657,0.521,na,0.0092,,,,,
JVASP-100013,CrRh,-0.02214,0.0,na,0.0337,,,,,
JVASP-99668,Mg3Si2,-0.02894,0.0,0.0,0.1637,,,,,
JVASP-99769,Eu2Co2O5,-2.3431,0.0,na,0.1564,,,,,
JVASP-92636,U2PtC2,-0.42047,0.0,na,0.0,,,,,
JVASP-100175,Fe3Cu,0.15099,0.0,na,0.1537,,,,,
JVASP-93314,MgCd,-0.07529,0.0,na,0.0414,,,,,
JVASP-100534,NdMgAg,-0.28768,0.0,na,0.0,,,,,
JVASP-100227,Th3Ti,0.20299,0.0,na,0.203,,,,,
JVASP-101396,ErGa3,-0.49516,0.0,na,0.0104,,,,,
JVASP-95468,HfB2O5,-3.03081,4.477,na,0.0,,,,,
JVASP-94907,UGa5Fe,-0.25195,0.0,na,0.0,,,,,