jid,formula,formation_energy_per_atom,optb88vdw_bandgap,mbj_bandgap,ehull,spacegroup_number,natoms,volume,bulk_modulus_kv,shear_modulus_gv
JVASP-85660,K3MnH5,-0.15257,1.515,na,0.0649,,,,,
JVASP-71355,MnBeNi,-0.00671,0.0,na,0.305,,,,,
JVASP-87097,K2MnTe2,-0.76766,0.735,na,0.0,,,,,
JVASP-91602,Mg3Mn,0.38946,0.0,na,0.3895,,,,,
JVASP-86674,NpCr2Ge2,-0.03692,0.0,na,0.1504,,,,,
JVASP-87038,BaZrF6,-4.02618,6.423,6.773,0.0,,,,,
JVASP-71281,Be2TcBi,0.31276,0.0,na,0.477,,,,,
JVASP-70507,MnBeSi,0.1911,0.0,0.0,0.4394,,,,,
JVASP-70364,Be2SiTc,-0.26002,0.0,0.0,0.0,,,,,
JVASP-70991,BeTc2Os,-0.05035,0.0,na,0.0852,,,,,
JVASP-75791,Ta2BeAs,0.5013,0.0,na,0.8703,,,,,
JVASP-5179,BiPt,-0.04832,0.0,0.0,0.218,,,,,
JVASP-69960,KBe2Cr,0.60326,0.0,na,0.7625,,,,,
JVASP-71167,BeCoMo2,-0.05986,0.0,0.0,0.0982,,,,,
JVASP-69663,Be2PCl,0.28987,0.0,0.0,0.9786,,,,,
JVASP-42281,Mn3OF5,-2.29668,0.0,na,0.0,,,,,
JVASP-70291,LiBe2Ru,0.12255,0.0,na,0.3926,,,,,
JVASP-91743,TiCuGeAs,-0.3929,0.0,na,0.0758,,,,,
JVASP-85357,CuO2,-0.33318,0.0,na,0.1588,,,,,
JVASP-42846,PrYMg2,-0.1093,0.0,na,0.0148,,,,,
JVASP-90853,TbPd,-0.95708,0.0,na,0.0009,,,,,
JVASP-70770,BeIn4Re,1.16094,0.0,na,1.254,,,,,
JVASP-70123,Be2CrFe,-0.15581,0.0,na,0.0459,,,,,
JVASP-75681,VGeAs,0.63654,0.0,0.0,0.9505,,,,,
JVASP-105952,Zr2Al3Co,-0.52513,0.0,0.0,0.0152,,,,,
JVASP-14857,Zr2Cu,-0.16046,0.0,na,0.0,,,,,
JVASP-86497,ScNiSn,-0.64563,0.0,na,0.0,,,,,
JVASP-48125,LiV3O8,-2.38543,1.099,na,0.0519,,,,,
JVASP-69497,Be2CoPb,0.40675,0.0,0.0,0.654,,,,,
JVASP-90767,Hf3Mg,0.07072,0.0,na,0.0707,,,,,
JVASP-69893,Be2InHg,0.71303,0.0,na,0.7143,,,,,
JVASP-92929,Mg6GaW,0.15471,0.0,na,0.2684,,,,,
JVASP-91247,RbHo2Cu3S5,-1.3709,1.563,na,0.0,,,,,
JVASP-70812,BeBi4Te,0.68841,0.0,na,0.8294,,,,,
JVASP-15742,NdSi2,-0.22267,0.0,na,0.3271,,,,,
JVASP-71240,BeCoBr,0.46862,0.0,0.0,1.1103,,,,,
JVASP-18582,ErInAg2,-0.37011,0.0,0.0,0.0,,,,,
JVASP-3612,K2PdCl6,-1.24048,1.107,1.799,0.0,,,,,
JVASP-90711,BaAgSF,-2.17085,1.535,2.908,0.0,,,,,
JVASP-105683,Rb2LiYBr6,-1.89877,4.06,na,0.0,,,,,
JVASP-95859,RbAuSe2O8,-0.74874,1.495,na,0.0189,,,,,
JVASP-85704,LiHS,-0.84129,3.462,3.507,0.0004,,,,,
JVASP-86351,Ag3O4,-0.16265,0.0,na,0.0305,,,,,
JVASP-70848,MgTaBe2,0.159,0.0,na,0.3525,,,,,
JVASP-67653,BeReW,0.06737,0.0,na,0.4322,,,,,
JVASP-68171,BeNb2Mo,0.20689,0.0,na,0.3606,,,,,
JVASP-70735,CaBeNb2,0.28735,0.0,0.0,0.3858,,,,,
JVASP-71320,Y2BeFe,0.10293,0.0,na,0.2279,,,,,
JVASP-71390,BeCuSb2,0.23745,0.0,na,0.2921,,,,,
JVASP-87169,Ba2MgWO6,-3.03643,2.822,3.688,0.0,,,,,
JVASP-92255,Li2CrFeO4,-1.97918,0.0,0.0,0.0321,,,,,
JVASP-70508,BePBr,0.10524,0.0,na,0.697,,,,,
JVASP-85920,KNaNdNbO5,-2.82973,3.473,4.412,0.0,,,,,
JVASP-91519,SmNiSb2,-0.71783,0.0,0.0,0.0106,,,,,
JVASP-70044,Be2NiRh,-0.33087,0.0,na,0.2538,,,,,
JVASP-70662,NaBe2Pd,0.29365,0.0,0.0,0.619,,,,,
JVASP-22682,Sr2MgH6,-0.54755,3.025,4.131,0.0069,,,,,
JVASP-75640,Ti2AsIr,-0.34122,0.0,na,0.5734,,,,,
JVASP-68221,BeHgPd2,0.04187,0.0,0.0,0.411,,,,,
JVASP-94130,Mg6NbNi,0.16134,0.0,na,0.2517,,,,,
JVASP-75754,MgMoAs,0.91266,0.0,na,1.3654,,,,,
JVASP-15441,CaNi2As2,-0.68126,0.0,0.0,0.0,,,,,
JVASP-69754,Be2CdCu,0.27787,0.0,na,0.3896,,,,,
JVASP-71063,BeRe2Ir,-0.17239,0.0,na,0.0353,,,,,
JVASP-93107,SrMg6Si,-0.00789,0.0,na,0.1687,,,,,
JVASP-75866,TcAsPt2,0.13967,0.0,na,0.4144,,,,,
JVASP-71097,BeSb2Cl,0.08209,0.0,na,0.6418,,,,,
JVASP-91395,FeCoBO4,-1.59455,0.0,0.0,0.1069,,,,,
JVASP-70771,NaSrBe2,0.7209,0.0,na,0.766,,,,,
JVASP-93177,KMg6Bi,0.01776,0.0,na,0.2276,,,,,
JVASP-70916,BeCoPd2,-0.19981,0.0,0.0,0.1722,,,,,
JVASP-71356,Be2TcHg,0.21279,0.0,na,0.3771,,,,,
JVASP-91324,Nd2WO6,-3.19134,0.606,na,0.0,,,,,
JVASP-91560,Tl3Pt,0.15527,0.0,na,0.204,,,,,
JVASP-105817,MgGe3,0.06408,0.0,na,0.1941,,,,,
JVASP-69824,Be2SnGe,0.42899,0.0,na,0.429,,,,,
JVASP-68027,Na2MnBe,0.75022,0.0,0.0,0.8445,,,,,
JVASP-67735,Be2BiCl,0.15286,0.0,na,0.7125,,,,,
JVASP-3426,Li2GePbS4,-0.91773,2.328,3.009,0.0,,,,,
JVASP-71284,Be2GePt,-0.14495,0.0,na,0.3242,,,,,
JVASP-92890,Mg6CrBi,0.12115,0.0,na,0.2046,,,,,
JVASP-70294,BeCoCu,0.00564,0.0,na,0.2163,,,,,
JVASP-71427,BeTe2Rh,-0.03916,0.0,na,0.3906,,,,,
JVASP-70992,BeCdOs2,0.1409,0.0,na,0.1434,,,,,
JVASP-70225,Be2CrFe,-0.06965,0.0,0.0,0.1321,,,,,
JVASP-70587,Be2ZnSi,0.40119,0.0,na,0.4024,,,,,
JVASP-86152,Rb2Te,-1.09468,1.882,3.157,0.0103,,,,,
JVASP-75641,Li2AsAu,-0.55925,0.0,na,0.0249,,,,,
JVASP-94749,BaMg6Al,0.03658,0.0,na,0.1616,,,,,
JVASP-18407,UH3,-0.29199,0.0,na,0.0036,,,,,
JVASP-68283,BeHgRu2,0.56393,0.0,0.0,0.6988,,,,,
JVASP-70880,Li2BeGe,0.03215,0.0,na,0.2999,,,,,
JVASP-75835,Ni2SnAs,0.36629,0.0,na,0.5948,,,,,
JVASP-71132,MgBeNi2,-0.11397,0.0,0.0,0.2501,,,,,
JVASP-1312,BP,-0.45342,1.515,1.914,0.0,,,,,
JVASP-70663,LaBeGa,-0.33939,0.0,na,0.0696,,,,,
JVASP-70849,Be2TcSn,0.2329,0.0,na,0.3972,,,,,
JVASP-74148,MnBeV2,-0.08573,0.0,0.0,0.1381,,,,,
JVASP-18914,NpSe,-1.24859,0.0,0.0,0.0,,,,,
JVASP-86721,Fe2C,1.03227,0.0,na,1.0357,,,,,
JVASP-94080,Mg6VMo,0.31927,0.0,na,0.3519,,,,,
JVASP-18621,TbPbAu,-0.70738,0.0,0.0,0.0,,,,,
JVASP-105612,K2RbScF6,-3.39878,6.186,7.66,0.0853,,,,,
JVASP-91938,GaAgS2,-0.54982,0.938,2.361,0.0029,,,,,
JVASP-86014,KEuSiS4,-1.54613,2.77,na,0.0,,,,,
JVASP-70736,Be2HgBr,0.31383,0.0,na,0.7147,,,,,
JVASP-86558,Cr3AgO8,-1.73279,0.222,na,0.0,,,,,
JVASP-94217,Mg6CoCu,0.04781,0.0,na,0.1095,,,,,
JVASP-90625,PrCuSn2,-0.48323,0.0,na,0.0,,,,,
JVASP-3141,YbMg2Sb2,-0.78642,0.791,1.255,0.0,,,,,
JVASP-56818,MnSbPt,0.11453,0.0,0.0,0.4111,,,,,
JVASP-85434,CuMoF6,-2.26213,0.0,0.036,0.0129,,,,,
JVASP-70045,Be2VGe,-0.0604,0.0,na,0.1099,,,,,
JVASP-69894,KBe2Bi,0.66955,0.0,na,0.8902,,,,,
JVASP-70954,BeNbOs2,0.04449,0.0,0.0,0.205,,,,,
JVASP-88807,SrTaNO2,-2.62383,1.443,na,0.043,,,,,
JVASP-70436,YMnBe2,0.30674,0.0,na,0.4831,,,,,
JVASP-3792,IrBr3,-0.29524,1.423,1.704,0.0,,,,,
JVASP-85779,TlCuHSO5,-1.14044,0.491,na,0.008,,,,,
JVASP-49789,Zr3N4,-1.71994,0.673,na,0.0232,,,,,
JVASP-70917,Be2HgCl,0.10213,0.0,na,0.6618,,,,,
JVASP-71357,BeRuPb,0.53587,0.0,na,0.7157,,,,,
JVASP-67901,KBeMo2,1.37638,0.0,0.0,1.489,,,,,
JVASP-67957,BeZn2W,0.28663,0.0,0.0,0.4625,,,,,
JVASP-71391,KBe2P,0.54306,0.0,na,0.8291,,,,,
JVASP-95163,Rb8Fe2O7,-1.46767,0.862,na,0.0055,,,,,
JVASP-86093,RbLaSiC4N8,-0.58917,4.462,na,0.0,,,,,
JVASP-86204,Tb5SbAu2,-0.43281,0.0,na,0.373,,,,,
JVASP-71468,HfBeSb2,0.08259,0.0,na,0.4281,,,,,
JVASP-75728,AsPd2Rh,-0.08975,0.0,na,0.2177,,,,,
JVASP-91466,Ca3MgSi2O8,-3.14969,4.206,na,0.0842,,,,,
JVASP-91841,CeSi2Ni,-0.77134,0.0,na,0.0,,,,,
JVASP-69826,YBeTe,-0.29055,0.0,0.0,0.627,,,,,
JVASP-71098,ZrBe2Cd,0.10821,0.0,na,0.3024,,,,,
JVASP-71321,Be2MoOs,0.0103,0.0,na,0.2312,,,,,
JVASP-51470,FeSnRu2,0.06039,0.0,0.0,0.1182,,,,,
JVASP-48258,Li6MnO6,-1.89325,0.0,na,0.0964,,,,,
JVASP-70993,HfBeTe2,-0.06958,0.0,na,0.6133,,,,,
JVASP-105883,ZnPd3,-0.30017,0.0,0.0,0.0432,,,,,
JVASP-71429,TaBeBi,0.70186,0.0,na,0.8358,,,,,
JVASP-69895,K4BeOs,1.46424,0.0,na,1.47,,,,,
JVASP-48499,V3O5F,-2.61174,0.0,na,0.0347,,,,,
JVASP-86676,Rb3Mn2Cl7,-1.48581,0.617,na,0.1309,,,,,
JVASP-68094,HfBeRu2,-0.07427,0.0,na,0.4722,,,,,
JVASP-91792,RbCu4Se3,-0.38778,0.0,na,0.0007,,,,,
JVASP-70813,BeOsRh2,-0.1662,0.0,na,0.1334,,,,,
JVASP-70850,Sc2BeRu,-0.29614,0.0,na,0.1221,,,,,
JVASP-75792,VSi2As,0.50631,0.0,na,0.7753,,,,,
JVASP-70881,Ta2BeCl,0.11496,0.0,na,0.7286,,,,,
JVASP-68222,BeNbRh2,-0.26406,0.0,na,0.2403,,,,,
JVASP-96665,Ta6Fe16Si7,-0.4333,0.0,na,0.0095,,,,,
JVASP-85533,Ba3Pb5,-0.56249,0.0,na,0.0,,,,,
JVASP-86897,ThPd3,-0.96311,0.0,na,0.0,,,,,
JVASP-43120,MnNbP2O8,-2.20995,0.179,na,0.1006,,,,,
JVASP-56072,MnBi,0.27758,0.0,na,0.2776,,,,,
JVASP-71064,MgBe2Nb,0.20685,0.0,na,0.3954,,,,,
JVASP-75683,MgAsOs2,0.4478,0.0,na,0.767,,,,,
JVASP-91744,ZnCu2SiTe4,-0.15673,0.166,na,0.005,,,,,
JVASP-70226,HfScBe2,-0.07046,0.0,0.0,0.1031,,,,,
JVASP-15006,CrSb2,0.20531,0.0,0.0,0.2053,,,,,
JVASP-5284,SrH2,-0.61708,1.678,2.974,0.0466,,,,,
JVASP-85358,ZrGaPt,-0.98715,0.0,na,0.0,,,,,
JVASP-70296,YBe2Bi,0.27791,0.0,na,0.7651,,,,,
JVASP-70737,BeRe2Br,0.3795,0.0,na,0.8475,,,,,
JVASP-71285,BeSb2Pd,-0.07996,0.0,na,0.2002,,,,,
JVASP-70365,Be2TlFe,0.52368,0.0,0.0,0.7254,,,,,
JVASP-86832,NdB2Rh2C,-0.6185,0.0,na,0.0,,,,,
JVASP-69580,MgBe2Tl,0.5807,0.0,0.0,0.6097,,,,,
JVASP-96459,LaAgGe,-0.67251,0.0,na,0.0,,,,,
JVASP-85661,Ba2H6Pt,-0.60596,1.797,na,0.0,,,,,
JVASP-86433,Th2MnN3,-1.51975,0.0,na,0.0,,,,,
JVASP-14883,ZrV2,0.03499,0.0,na,0.035,,,,,
JVASP-105739,DyMg3,-0.06164,0.0,na,0.0053,,,,,
JVASP-71206,MnBeRh2,-0.1559,0.0,na,0.148,,,,,
JVASP-90712,RbCd4As3,-0.25129,0.0,na,0.0,,,,,
JVASP-69665,YBe2Mo,0.05692,0.0,na,0.2778,,,,,
JVASP-92934,RbMg6Cd,0.10741,0.0,na,0.1515,,,,,
JVASP-71133,BeCdGa2,0.25216,0.0,na,0.2546,,,,,
JVASP-75755,TiGeAs,0.26028,0.0,na,0.8853,,,,,
JVASP-70053,TiBe2Cr,0.04505,0.0,na,0.2531,,,,,
JVASP-18939,Pr3Tl,-0.23461,0.0,na,0.0,,,,,
JVASP-71241,KScBe2,0.41374,0.0,0.0,0.5415,,,,,
JVASP-69828,Be2VPt,-0.33544,0.0,na,0.1741,,,,,
JVASP-86498,HoSi2Os2,-0.6891,0.0,na,0.0,,,,,
JVASP-70955,BeInSb2,0.25018,0.0,na,0.297,,,,,
JVASP-106036,MgCdTe2,-0.67816,1.22,2.296,0.0134,,,,,
JVASP-75793,MoAsOs2,0.45208,0.0,na,0.5729,,,,,
JVASP-70127,ZrBe2Cu,0.1472,0.0,0.0,0.3524,,,,,
JVASP-92249,LiAgF2,-2.05432,1.328,3.902,0.0705,,,,,
JVASP-95938,Sr3MgPtO6,-2.51364,2.714,na,0.0,,,,,
JVASP-52900,H2O,-0.99305,5.567,na,0.0027,,,,,
JVASP-70442,SrBe2In,0.42732,0.0,na,0.7098,,,,,
JVASP-70994,ZrBe2Cu,0.14717,0.0,na,0.3523,,,,,
JVASP-88338,PH8C2NO4,-0.83188,5.553,na,0.0,,,,,
JVASP-71469,BeTe2Pt,-0.02334,0.0,na,0.3959,,,,,
JVASP-18551,RbMnSe2,-0.72168,0.0,0.0,0.0547,,,,,
JVASP-75867,NaAsRu2,0.40786,0.0,na,0.6633,,,,,
JVASP-70918,BeFePd2,-0.21013,0.0,na,0.1599,,,,,
JVASP-94825,CaRhF6,-2.56326,0.0,na,0.0,,,,,
JVASP-70882,TiBe2Sn,-0.0154,0.0,0.0,0.2495,,,,,
JVASP-93110,CeMg6Nb,0.17876,0.0,na,0.1866,,,,,
JVASP-105818,MgGePd2,-0.55838,0.0,na,0.0297,,,,,
JVASP-18950,RhO2,-0.98664,0.0,na,0.0,,,,,
JVASP-71322,BeTcMo,0.22257,0.0,0.0,0.3698,,,,,
JVASP-69499,Be2CrRu,-0.04908,0.0,0.0,0.2207,,,,,
JVASP-71169,BeNbCo4,-0.0636,0.0,0.0,0.1711,,,,,
JVASP-92305,BaTiO3,-3.35302,2.179,na,0.0176,,,,,
JVASP-71503,BeZnSn,0.37867,0.0,na,0.3787,,,,,
JVASP-71065,BeRe2Br,0.37949,0.0,na,0.8475,,,,,
JVASP-85848,Ge,0.24922,0.0,na,0.0,,,,,
JVASP-67902,BeCrSi2,0.3426,0.0,na,0.5002,,,,,
JVASP-94751,Mg6AlCr,0.13559,0.0,na,0.1675,,,,,
JVASP-93180,KMg6Sb,-0.01037,0.0,na,0.2431,,,,,
JVASP-94132,Mg6NbCo,0.22845,0.0,na,0.2782,,,,,
JVASP-91248,LiNbZnO4,-2.36948,2.842,na,0.0181,,,,,
JVASP-91562,CeSb2Au,-0.70745,0.0,na,0.0,,,,,
JVASP-92436,KFeF3,-2.46927,0.0,na,0.0,,,,,
JVASP-105613,K2NaAuCl6,-1.23548,0.0,na,0.0898,,,,,
JVASP-69581,ZrTaBe2,0.08241,0.0,na,0.2759,,,,,
JVASP-14799,TbFe2,-0.11085,0.0,0.0,0.0107,,,,,
JVASP-15442,CeSi2Os2,-0.67667,0.0,na,0.0,,,,,
JVASP-87039,Ti5TlSe8,-1.1539,0.0,na,0.0,,,,,
JVASP-87098,Rb2MnTe2,-0.77189,0.856,na,0.0,,,,,
JVASP-71027,MnBeRh2,-0.15255,0.0,0.0,0.1513,,,,,
JVASP-71430,Be2CuOs,-0.10594,0.0,na,0.0033,,,,,
JVASP-67736,ScBeIn,0.00752,0.0,0.0,0.3508,,,,,
JVASP-70367,YBe2Sb,0.11338,0.0,na,0.7319,,,,,
JVASP-75642,Ta2FeAs,0.32284,0.0,na,0.6921,,,,,
JVASP-75756,MgTc2As,0.20611,0.0,na,0.5334,,,,,
JVASP-68284,Na2BeFe,0.81128,0.0,na,0.9187,,,,,
JVASP-85921,Li3Ti4O8,-2.8479,0.0,na,0.1179,,,,,
JVASP-92375,Fe3NiN,1.82675,0.0,na,1.9714,,,,,
JVASP-69962,Be2TcRh,-0.12193,0.0,0.0,0.2598,,,,,
JVASP-70814,BeNiSe2,-0.14659,0.0,na,0.468,,,,,
JVASP-75869,HfAsIr,-0.31776,0.0,na,0.5519,,,,,
JVASP-338,TiTe,-0.60646,0.0,0.0,0.0962,,,,,
JVASP-71286,Be2PCl,-0.14849,0.0,na,0.5403,,,,,
JVASP-70738,BeFeIr2,-0.17306,0.0,na,0.0212,,,,,
JVASP-75836,ScAsPt,-1.13695,0.0,0.0,0.0393,,,,,
JVASP-92891,Mg6CrGa,0.10661,0.0,na,0.1507,,,,,
JVASP-43359,Li2FeCo3O8,-1.4674,0.0,na,0.1016,,,,,
JVASP-106118,CaUO4,-3.42134,1.334,na,0.0747,,,,,
JVASP-86016,FeWClO4,-1.77633,0.54,na,0.0609,,,,,
JVASP-68172,BeTl2Pb,0.53101,0.0,na,0.5398,,,,,
JVASP-94219,KMg6Cu,0.14015,0.0,na,0.1915,,,,,
JVASP-3615,NdBrO,-3.05852,4.507,5.673,0.0,,,,,
JVASP-69831,MgBe2Cl,0.45181,0.0,na,1.2041,,,,,
JVASP-70510,Be2PdSe,0.07364,0.0,na,0.8189,,,,,
JVASP-70589,ZrBe2Cr,0.28065,0.0,na,0.4436,,,,,
JVASP-71099,SrBeV,0.75294,0.0,na,0.8541,,,,,
JVASP-90854,KCd4As3,-0.25346,0.0,na,0.0,,,,,
JVASP-86722,Pr2Ni2I,-0.74741,0.0,na,0.0,,,,,
JVASP-105953,Zn2GeS3,-0.58176,1.182,1.696,0.1293,,,,,
JVASP-106192,SrMg2As2,-1.06065,1.463,na,0.0,,,,,
JVASP-94081,Mg6VSn,0.08455,0.0,na,0.1808,,,,,
JVASP-90810,TePb,-0.41685,1.013,1.306,0.0128,,,,,
JVASP-71134,BePPd2,-0.30513,0.0,na,0.1882,,,,,
JVASP-91325,Er2WO6,-3.29319,0.612,na,0.0,,,,,
JVASP-92256,Li2MnSnO4,-1.85381,0.0,na,0.1446,,,,,
JVASP-70772,BeCoPt2,-0.28845,0.0,0.0,0.0367,,,,,
JVASP-71324,NaBe2Pb,0.69955,0.0,na,0.7816,,,,,
JVASP-18743,PrMg2,-0.10446,0.0,na,0.0161,,,,,
JVASP-71170,LiCaBe,0.29527,0.0,na,0.3503,,,,,
JVASP-92506,KO2,-1.01813,0.0,na,0.0,,,,,
JVASP-88814,Na2Si4Cu5O14,-1.88445,0.329,na,0.0645,,,,,
JVASP-50360,Bi2PO6,-1.68159,0.0,na,0.0783,,,,,
JVASP-70884,CaBe2Cd,0.45648,0.0,na,0.7199,,,,,
JVASP-70227,Be2TcOs,-0.00792,0.0,na,0.1721,,,,,
JVASP-67903,Zr2BeIn,0.03335,0.0,na,0.307,,,,,
JVASP-91603,TbCoGe2,-0.64719,0.0,na,0.0,,,,,
JVASP-105684,Rb2NaSbI6,-0.99681,2.033,2.474,0.0521,,,,,
JVASP-44114,Li2V3SnO8,-2.31571,0.0,na,0.0817,,,,,
JVASP-67961,BeV2Mo,0.099,0.0,na,0.2421,,,,,
JVASP-69755,Be2CrGe,-0.03434,0.0,0.0,0.1227,,,,,
JVASP-18839,ScInPd2,-0.8318,0.0,0.0,0.0,,,,,
JVASP-70057,Be2NbMo,0.03018,0.0,na,0.2674,,,,,
JVASP-71504,MgBe2Bi,0.57951,0.0,na,0.6908,,,,,
JVASP-70956,YBe2Sb,0.01542,0.0,na,0.634,,,,,
JVASP-71547,BeNiBr,0.25086,0.0,0.0,0.9411,,,,,
JVASP-70919,Be2IrPb,0.41292,0.0,na,0.7214,,,,,
JVASP-91396,Er2Ni12P7,-0.74405,0.0,na,0.0,,,,,
JVASP-69964,LiBe2Sb,0.29375,0.0,0.0,0.5426,,,,,
JVASP-71470,BeCdSb,0.24996,0.0,na,0.2752,,,,,
JVASP-70816,BeMo4Pt,0.45839,0.0,na,0.6517,,,,,
JVASP-15081,ThSi2,-0.53382,0.0,na,0.0063,,,,,
JVASP-85705,Y2H2C,-0.66225,0.0,0.263,0.0,,,,,
JVASP-70133,BeZnSn4,0.66164,0.0,na,0.6616,,,,,
JVASP-91467,MnP2O6,-2.08914,1.948,na,0.0,,,,,
JVASP-86559,La2Pd2O5,-2.40389,1.186,na,0.0,,,,,
JVASP-70665,Be2TlCu,0.57348,0.0,0.0,0.6827,,,,,
JVASP-1342,UN2,-1.57409,0.864,0.974,0.0,,,,,
JVASP-75684,AsRhW2,0.15053,0.0,na,0.6415,,,,,
JVASP-85360,KCSN,-0.51869,4.655,na,0.027,,,,,
JVASP-86352,Ho3Ge4,-0.79457,0.0,na,0.0,,,,,
JVASP-71325,Sr2BeCd,0.17395,0.0,na,0.4126,,,,,
JVASP-71644,KBeTc,0.93907,0.0,0.0,1.0515,,,,,
JVASP-69833,TaBePt,-0.11256,0.0,0.0,0.4028,,,,,
JVASP-71100,Be2HgBr,0.31421,0.0,na,0.715,,,,,
JVASP-71358,MnBeSn2,0.31275,0.0,0.0,0.4009,,,,,
JVASP-70773,KNaBe,0.66404,0.0,na,0.6743,,,,,
JVASP-70995,BePdW2,-0.28304,0.0,na,0.2755,,,,,
JVASP-86153,Bi2Pd,-0.21958,0.0,na,0.0,,,,,
JVASP-71392,Na2BeCo,0.25457,0.0,na,0.4187,,,,,
JVASP-96682,CaMgAsO4F,-2.67256,4.22,na,0.0127,,,,,
JVASP-68097,BeTc2Ru,0.10325,0.0,na,0.2623,,,,,
JVASP-85662,ReF7,-2.08085,1.91,2.594,0.0,,,,,
JVASP-105884,YbAuO3,-1.20527,0.0,na,0.3296,,,,,
JVASP-91842,LaCoPO,-2.1046,0.0,na,0.0,,,,,
JVASP-71207,KTa2Be,0.60612,0.0,na,0.7161,,,,,
JVASP-93115,LaMg6Mo,0.2245,0.0,na,0.2902,,,,,
JVASP-75870,AsOsW2,0.26673,0.0,0.0,0.617,,,,,
JVASP-42637,CrP2O6,-2.04478,0.466,na,0.0797,,,,,
JVASP-96463,Sr4Cl6O,-2.75179,4.866,na,0.0,,,,,
JVASP-91745,LiTiNCl,-1.638,0.0,na,0.3067,,,,,
JVASP-28403,WSeS,-0.66701,0.704,0.97,0.1769,,,,,
JVASP-20065,HfSi2,-0.48433,0.0,0.0,0.0067,,,,,
JVASP-86898,ZrI3,-0.98376,0.0,na,0.0002,,,,,
JVASP-71066,Be2SiCl,0.58672,0.0,na,1.1476,,,,,
JVASP-70511,TaBe2Sb,0.36658,0.0,0.0,0.5847,,,,,
JVASP-86500,NdSiRu,-0.72548,0.0,na,0.0,,,,,
JVASP-70297,KZrBe2,0.51822,0.0,na,0.6645,,,,,
JVASP-70957,SrBe2Zn,0.67332,0.0,na,0.8497,,,,,
JVASP-68224,MnBePd2,-0.16933,0.0,0.0,0.1998,,,,,
JVASP-70851,MgMn2Be,0.06248,0.0,na,0.1507,,,,,
JVASP-71431,BeNiPb2,0.15989,0.0,na,0.3936,,,,,
JVASP-71505,MgBe2P,0.20633,0.0,na,0.6406,,,,,
JVASP-51442,GaFe2Co,-0.02304,0.0,0.0,0.124,,,,,
JVASP-75794,YAsRu,-0.46206,0.0,0.0,0.6337,,,,,
JVASP-70228,LaBe2Co,0.07999,0.0,na,0.3272,,,,,
JVASP-71242,BeCuPb2,0.26299,0.0,na,0.3176,,,,,
JVASP-92376,Fe3PtN,2.06397,0.0,na,2.2835,,,,,
JVASP-70058,TiBeMo,0.28378,0.0,na,0.4645,,,,,
JVASP-75644,AsRhBr,1.01933,0.0,0.0,1.4704,,,,,
JVASP-95952,Ba2NdRuO6,-2.60523,0.116,na,0.0,,,,,
JVASP-85435,RbNa2NiO2,-1.24206,0.0,0.0,0.0192,,,,,
JVASP-71647,BeCu2Re,0.33347,0.0,na,0.4679,,,,,
JVASP-70739,BeGeSe2,0.2474,0.0,na,0.8426,,,,,
JVASP-12054,Mn3CoO8,-1.54392,0.0,0.0,0.0847,,,,,
JVASP-71589,BeSn2Se,0.01801,0.0,na,0.4832,,,,,
JVASP-71548,Be2ZnHg,0.48231,0.0,na,0.4823,,,,,
JVASP-92936,RbMg6Ga,0.13154,0.0,na,0.1794,,,,,
JVASP-92438,Nd3InN,-0.73133,0.0,na,0.2121,,,,,
JVASP-92554,HgN2Cl2,1.80339,0.358,na,2.1033,,,,,
JVASP-42792,Li3Cr3FeO8,-2.07796,0.0,na,0.0254,,,,,
JVASP-14800,K,0.00024,0.0,na,0.0,,,,,
JVASP-75685,TcTeAs,0.18038,0.0,0.0,0.3086,,,,,
JVASP-71135,BeSi2Bi,0.51648,0.0,na,0.5189,,,,,
JVASP-87170,LiMoP2O7,-2.16826,1.417,na,0.0336,,,,,
JVASP-94133,Mg6CrCo,0.25242,0.0,na,0.2639,,,,,
JVASP-75837,ZrAsPt,-0.7354,0.0,0.122,0.3037,,,,,
JVASP-69666,NaBe2Fe,0.77677,0.0,0.0,0.9815,,,,,
JVASP-68029,Ti2MnBe,-0.01644,0.0,0.0,0.2015,,,,,
JVASP-91249,CaCu3Sn4O12,-1.58419,0.727,na,0.0623,,,,,
JVASP-105614,K3YCl6,-2.15178,4.705,6.286,0.0468,,,,,
JVASP-70667,Be2IrPb,0.16806,0.0,na,0.4765,,,,,
JVASP-90855,NdAsRuO,-1.92021,0.0,na,0.0,,,,,
JVASP-70590,Be2SiTe,0.73439,0.0,na,0.9471,,,,,
JVASP-15702,U2IrC2,-0.43439,0.0,na,0.0,,,,,
JVASP-3798,NaBiF6,-2.21939,2.547,3.435,0.0,,,,,
JVASP-75795,Ti2CuAs,0.10082,0.0,na,0.6742,,,,,
JVASP-70817,BeInSe2,-0.24518,0.0,na,0.4731,,,,,
JVASP-70996,Be2CdCu,0.2779,0.0,na,0.3896,,,,,
JVASP-22600,RbS,-1.04092,1.652,3.443,0.0201,,,,,
JVASP-15783,CaGaN,-0.89133,0.0,na,0.0148,,,,,
JVASP-91563,UCoC2,-0.22875,0.0,na,0.0,,,,,
JVASP-43582,VOF,-2.6383,0.0,na,0.0831,,,,,
JVASP-70512,BeInGe,0.24417,0.0,na,0.2459,,,,,
JVASP-105743,Cu3Sb,0.12414,0.0,na,0.1241,,,,,
JVASP-71326,NaBeRu,0.44648,0.0,0.0,0.6304,,,,,
JVASP-95736,TiNiGe,-0.65946,0.0,na,0.0,,,,,
JVASP-71209,BeSb2Pb,0.33887,0.0,na,0.3389,,,,,
JVASP-70446,Be2OsCl,0.64204,0.0,0.0,1.2017,,,,,
JVASP-92595,Tb2AlNi2,-0.58812,0.0,na,0.0076,,,,,
JVASP-92892,Mg6CrGa,0.11282,0.0,na,0.1569,,,,,
JVASP-69582,LiBe2Br,0.05306,0.0,na,0.9027,,,,,
JVASP-71028,SrBe2V,0.80914,0.0,na,0.9609,,,,,
JVASP-75872,AsPd2Pt,-0.10886,0.0,0.0,0.1585,,,,,
JVASP-71471,BeSn2Pd,-0.12255,0.0,na,0.1832,,,,,
JVASP-94752,Mg6AlSb,-0.04354,0.0,na,0.1059,,,,,
JVASP-93181,KMg6Cd,0.08662,0.0,na,0.128,,,,,
JVASP-85781,NaH4IO2,-1.09009,3.838,6.032,0.0,,,,,
JVASP-70300,YBe2Pd,-0.22059,0.0,na,0.2671,,,,,
JVASP-71395,Be2CrIr,-0.1472,0.0,na,0.1883,,,,,
JVASP-71101,HfBeRh2,-0.5556,0.0,na,0.2176,,,,,
JVASP-71171,Ta2BeCd,0.19384,0.0,0.0,0.3042,,,,,
JVASP-75757,NaTc2As,0.35584,0.0,na,0.585,,,,,
JVASP-70852,Be2NbBi,0.52251,0.0,na,0.7111,,,,,
JVASP-69896,Be2FeBr,0.70277,0.0,0.0,1.2551,,,,,
JVASP-71067,Be2TlSe,0.75749,0.0,na,1.2227,,,,,
JVASP-92507,CaCoO3,-1.83115,0.0,na,0.1892,,,,,
JVASP-70369,Be2FeHg,0.44578,0.0,0.0,0.6475,,,,,
JVASP-105958,YTh,0.05278,0.0,na,0.087,,,,,
JVASP-71648,BeGa2Re,0.10641,0.0,na,0.2408,,,,,
JVASP-69756,YBe2Se,-0.03255,0.0,na,0.9013,,,,,
JVASP-14924,HfCo3B2,-0.57736,0.0,na,0.0113,,,,,
JVASP-85849,Nd2Fe17,0.05785,0.0,na,0.0611,,,,,
JVASP-94227,Mg6FeBi,0.13133,0.0,na,0.2152,,,,,
JVASP-50358,Ho2Zr2O7,-3.74094,2.721,3.922,0.0338,,,,,
JVASP-15444,TiAlCu2,-0.31158,0.0,na,0.0,,,,,
JVASP-71550,Be2ReGe,0.06871,0.0,na,0.3375,,,,,
JVASP-71243,Be2HgTe,0.80201,0.0,na,1.0135,,,,,
JVASP-69501,Be2SnP,0.6061,0.0,na,0.7504,,,,,
JVASP-94082,SrMg6V,0.16292,0.0,na,0.2232,,,,,
JVASP-85534,Pb4SeBr6,-0.86801,2.105,2.974,0.0247,,,,,
JVASP-86833,LiSn6Pd2,-0.31564,0.0,na,0.0137,,,,,
JVASP-48917,LiMn7O9F3,-1.92352,0.041,na,0.0,,,,,
JVASP-86094,NbBr5,-0.88574,1.472,1.884,0.0007,,,,,
JVASP-70885,BeZn2Co,-0.07785,0.0,na,0.1026,,,,,
JVASP-18840,Sc2In,-0.39178,0.0,na,0.0,,,,,
JVASP-539,CrSe2,-0.46379,0.0,0.0,0.0155,,,,,
JVASP-71359,Be2InP,0.45704,0.0,na,0.5874,,,,,
JVASP-91326,Pb2WO5,-1.85555,0.77,na,0.0695,,,,,
JVASP-16189,PrGaO3,-1.33707,0.0,na,1.5119,,,,,
JVASP-68285,TiBeV2,0.05547,0.0,0.0,0.1419,,,,,
JVASP-3618,BaBrF,-3.2857,4.906,6.379,0.0166,,,,,
JVASP-86434,LiNbO2,-2.55148,1.58,na,0.0,,,,,
JVASP-75873,Si2AsW,0.5759,0.0,na,0.7706,,,,,
JVASP-71590,BeCdHg2,0.44342,0.0,na,0.4459,,,,,
JVASP-95169,SrH4N2,-0.60252,2.472,4.851,0.0,,,,,
JVASP-105819,MgNb3,0.25127,0.0,na,0.2513,,,,,
JVASP-92257,LiVO2,-2.40782,0.0,na,0.0977,,,,,