jid,formula,formation_energy_per_atom,optb88vdw_bandgap,mbj_bandgap,ehull,spacegroup_number,natoms,volume,bulk_modulus_kv,shear_modulus_gv
JVASP-71496,Be2CrPt,-0.21446,0.0,na,0.1485,,,,,
JVASP-105978,TiBe4Nb,-0.15488,0.0,na,0.0913,,,,,
JVASP-106046,Li2MgGe,-0.37804,0.09,na,0.0,,,,,
JVASP-105828,Nd3Ti,0.2401,0.0,na,0.2401,,,,,
JVASP-94143,Mg6CuBi,-0.01822,0.0,na,0.1155,,,,,
JVASP-70348,NaLaBe2,0.55095,0.0,na,0.554,,,,,
JVASP-42295,Li2Cr3CuO8,-1.91524,0.0,na,0.0855,,,,,
JVASP-71835,Be2NbV,0.02074,0.0,na,0.2093,,,,,
JVASP-74390,CaYBe2,0.49684,0.0,na,0.5677,,,,,
JVASP-74478,Be2SiMo,0.08225,0.0,0.0,0.3513,,,,,
JVASP-71019,LiBePt2,-0.47831,0.0,na,0.2388,,,,,
JVASP-70183,BeInGa,0.3423,0.0,na,0.3441,,,,,
JVASP-71991,BeNi2P,-0.28478,0.0,0.0,0.1605,,,,,
JVASP-70635,CaBe2P,0.32608,0.0,na,0.983,,,,,
JVASP-71581,Sr2BeNb,0.48326,0.0,na,0.5776,,,,,
JVASP-71423,Be2ZnCd,0.38127,0.0,na,0.3837,,,,,
JVASP-74315,BeBi2Cl,0.25306,0.0,na,0.8127,,,,,
JVASP-92559,ZrBRh3,-0.73718,0.0,na,0.0,,,,,
JVASP-71047,Be2TlSb,0.81824,0.0,na,0.8244,,,,,
JVASP-71950,TaBeIn,0.49505,0.0,0.0,0.6307,,,,,
JVASP-69635,MnBe2Nb,0.05293,0.0,na,0.2869,,,,,
JVASP-94095,Mg6GaNi,-0.02802,0.0,na,0.1064,,,,,
JVASP-71087,SrBe2Tc,0.74631,0.0,na,0.9106,,,,,
JVASP-71277,Na2CaBe,0.29378,0.0,0.0,0.3374,,,,,
JVASP-74700,NaBe2P,0.52949,0.0,0.0,0.7609,,,,,
JVASP-74438,KBe2Si,1.00802,0.0,na,1.0114,,,,,
JVASP-71352,Na2CaBe,0.29388,0.0,na,0.3375,,,,,
JVASP-74573,Be2NiRu,-0.30621,0.0,na,0.0625,,,,,
JVASP-70872,YBeMo4,0.45058,0.0,na,0.5242,,,,,
JVASP-74359,ScBePb2,0.14194,0.0,na,0.3624,,,,,
JVASP-63911,KBaPb,-0.03159,0.0,na,0.4029,,,,,
JVASP-92901,Mg6BMo,0.3752,0.0,na,0.4883,,,,,
JVASP-94378,MgTi2,0.22772,0.0,na,0.2277,,,,,
JVASP-74182,BeCrTc,0.24754,0.0,0.0,0.3571,,,,,
JVASP-71315,KBeSi,0.19968,0.0,0.0,0.2041,,,,,
JVASP-71464,LiBe2Se,0.0786,0.0,na,0.836,,,,,
JVASP-69430,BeFeCl,0.14693,0.0,na,0.9613,,,,,
JVASP-14884,AlMo3,-0.22565,0.0,na,0.0,,,,,
JVASP-74266,Na2TiBe2,1.09514,0.0,0.0,1.2383,,,,,
JVASP-14804,YbAs,-0.91073,0.0,na,0.2024,,,,,
JVASP-92517,SrSi3Au,-0.34606,0.0,na,0.0246,,,,,
JVASP-93368,NbO,-2.12139,0.0,na,0.0,,,,,
JVASP-131,SnS2,-0.43988,1.224,2.063,0.0,,,,,
JVASP-70841,Be2TlIr,0.29962,0.0,0.0,0.6081,,,,,
JVASP-94281,HfV2,0.02451,0.0,na,0.0245,,,,,
JVASP-93919,CoTeMo,0.44116,0.0,na,0.6111,,,,,
JVASP-74518,BeTl2V,0.7328,0.0,0.0,0.8087,,,,,
JVASP-71384,BeTl2Ga,0.3232,0.0,na,0.3232,,,,,
JVASP-105626,Na3SbI6,-0.7207,2.03,na,0.2381,,,,,
JVASP-95042,TaPS,-0.85059,0.0,na,0.0722,,,,,
JVASP-94241,Mg6NbFe,0.19496,0.0,na,0.2276,,,,,
JVASP-71225,LiBeTc2,0.14081,0.0,na,0.2232,,,,,
JVASP-70190,Be2WSe,0.20132,0.0,na,0.8423,,,,,
JVASP-71992,TiBe2W,-0.09655,0.0,na,0.2155,,,,,
JVASP-70800,BeNb2Fe,0.01871,0.0,0.0,0.1782,,,,,
JVASP-72086,BeZnOs2,0.22505,0.0,0.0,0.2251,,,,,
JVASP-74479,Be2FeSe,0.12534,0.0,na,0.6918,,,,,
JVASP-74617,CaHfBe2,0.59693,0.0,na,0.768,,,,,
JVASP-74574,LiHf4Be,0.76007,0.0,na,0.8158,,,,,
JVASP-70637,ScBe2Mo,0.07683,0.0,na,0.2977,,,,,
JVASP-74393,Be2CoNi,-0.41892,0.0,na,0.0029,,,,,
JVASP-359,ZrTe,-0.84679,0.0,0.0,0.0728,,,,,
JVASP-18703,LiMg2Ga,-0.1912,0.0,na,0.0,,,,,
JVASP-74848,Be2CoIr,-0.41399,0.0,na,0.0515,,,,,
JVASP-71425,Y2BeCo,0.02589,0.0,na,0.2573,,,,,
JVASP-71497,Be2CdSi,0.55165,0.0,na,0.5553,,,,,
JVASP-70719,Be2FeSn,0.23198,0.0,0.0,0.4337,,,,,
JVASP-15446,CeAl3Pd2,-0.81197,0.0,na,0.0002,,,,,
JVASP-92389,TlCo2S2,-0.40257,0.0,na,0.0633,,,,,
JVASP-71538,Be2InTe,0.6745,0.0,na,0.8873,,,,,
JVASP-106126,BeCo2Ge,-0.17644,0.0,na,0.0984,,,,,
JVASP-93192,KLiMg6,0.1207,0.0,na,0.1528,,,,,
JVASP-74441,BeBi2Pb,0.5646,0.0,na,0.5647,,,,,
JVASP-96050,TbCoO3,-2.53071,0.27,na,0.0083,,,,,
JVASP-71278,ScBe2Pb,0.32763,0.0,na,0.5715,,,,,
JVASP-71353,MgBe2P,0.28817,0.0,na,0.7224,,,,,
JVASP-69636,Be2CuBr,0.61138,0.0,0.0,1.0941,,,,,
JVASP-60638,UBr4,-1.35092,0.176,na,0.0,,,,,
JVASP-71617,BeVSi2,0.10332,0.0,0.0,0.3587,,,,,
JVASP-74803,La2ZrBe,0.34062,0.0,na,0.4127,,,,,
JVASP-95675,BaTi4O9,-3.29814,2.722,na,0.0034,,,,,
JVASP-71088,BeGeIr2,-0.18981,0.0,na,0.1091,,,,,
JVASP-74183,BeGa4Te,0.45341,0.0,na,0.5944,,,,,
JVASP-71200,KBe2Ge,1.01493,0.0,na,1.0171,,,,,
JVASP-74660,Ca2BeFe,0.49838,0.0,na,0.6081,,,,,
JVASP-19871,ErCd,-0.34079,0.0,0.0,0.0,,,,,
JVASP-71020,Mg2BeIn,0.24674,0.0,na,0.3299,,,,,
JVASP-74938,K2LaBe,0.68705,0.0,na,0.6914,,,,,
JVASP-70193,ScBe2Si,0.02653,0.0,na,0.4352,,,,,
JVASP-74887,K2YBe,0.81491,0.0,na,0.8192,,,,,
JVASP-92811,LaNi2P2,-1.00028,0.0,na,0.0,,,,,
JVASP-94968,BaHo2O4,-2.9188,1.205,na,0.6558,,,,,
JVASP-71465,BeCuSe,0.07709,0.0,na,0.6973,,,,,
JVASP-1324,PrMg,-0.11192,0.0,na,0.0,,,,,
JVASP-71048,MgBeSb2,0.18833,0.0,0.0,0.3679,,,,,
JVASP-74519,BeZnSb2,0.52246,0.0,na,0.5434,,,,,
JVASP-71226,KBe2W,0.8015,0.0,na,1.0161,,,,,
JVASP-71316,Be2GeRu,-0.15135,0.0,na,0.1264,,,,,
JVASP-92317,MgZn,-0.03395,0.0,na,0.075,,,,,
JVASP-70761,KNa2Be,0.47338,0.0,0.0,0.4861,,,,,
JVASP-71385,Be2FeBi,0.53234,0.0,na,0.7341,,,,,
JVASP-70484,Be2NbCo,-0.16605,0.491,0.452,0.1082,,,,,
JVASP-87189,SrFe3P4O14,-2.13643,0.018,na,0.0,,,,,
JVASP-70801,BeCuTe2,0.08212,0.0,na,0.3118,,,,,
JVASP-71993,BeCr2Te,0.58097,0.0,0.0,0.7925,,,,,
JVASP-72092,Ti2BeTl,0.10943,0.0,0.0,0.1958,,,,,
JVASP-71539,KTiBe2,0.42404,0.0,na,0.599,,,,,
JVASP-53982,BN,-1.11459,5.91,7.136,0.2743,,,,,
JVASP-74576,SrBeMo4,0.83247,0.0,na,0.9061,,,,,
JVASP-74753,ScBeHg2,0.08507,0.0,0.0,0.2848,,,,,
JVASP-70941,Li2BeFe,0.10689,0.0,na,0.2087,,,,,
JVASP-74998,K2TiBe,1.24822,0.0,na,1.3389,,,,,
JVASP-18841,Sr3In,-0.18201,0.0,0.0,0.0833,,,,,
JVASP-50363,Li5BiS4,-1.12307,1.577,na,0.1328,,,,,
JVASP-70906,ZrBe2Hg,0.1776,0.0,na,0.3472,,,,,
JVASP-56503,Sc3In,-0.3017,0.0,na,0.0052,,,,,
JVASP-95483,ZnS,-0.88681,2.089,na,0.0,,,,,
JVASP-92271,Mg3Bi,-0.02606,0.0,na,0.1409,,,,,
JVASP-71896,TiBeGa2,-0.13278,0.0,0.0,0.2173,,,,,
JVASP-93497,LaB2Pt2C,-0.67665,0.0,na,0.0091,,,,,
JVASP-93268,MnInF3,-2.17178,1.389,na,0.025,,,,,
JVASP-94868,Ti3Se4,-1.2155,0.0,na,0.0141,,,,,
JVASP-94420,Fe2B,-0.28434,0.0,na,0.0,,,,,
JVASP-93869,ReN2,0.03198,0.0,na,0.0799,,,,,
JVASP-105760,ErMg3,-0.0476,0.0,0.0,0.0025,,,,,
JVASP-70641,SrBeOs,0.29347,0.0,na,0.3215,,,,,
JVASP-85552,UO2F2,-3.25271,2.392,2.318,0.0851,,,,,
JVASP-52810,KMn4O8,-1.63695,0.0,na,0.2603,,,,,
JVASP-74480,KBe2Cd,0.90389,0.0,na,0.9341,,,,,
JVASP-74184,TaBeRu,0.03236,0.0,na,0.3508,,,,,
JVASP-94913,CuMoS4N,0.44603,0.0,na,0.946,,,,,
JVASP-74222,Na2TaBe,1.16021,0.0,0.0,1.2667,,,,,
JVASP-70980,BeZn2Cr,0.16899,0.0,na,0.2475,,,,,
JVASP-74890,ZrBeMo,0.41329,0.0,na,0.5953,,,,,
JVASP-92454,CoO2,-0.98813,0.0,na,0.0788,,,,,
JVASP-1375,Li3N,-0.52731,1.292,2.384,0.0469,,,,,
JVASP-91115,MnBe2Os,0.6994,0.0,na,0.8758,,,,,
JVASP-74940,BeCoBi2,0.71967,0.0,na,0.8777,,,,,
JVASP-93325,CaMg,0.05852,0.0,na,0.1747,,,,,
JVASP-72398,BeCd2Fe,0.48496,0.0,0.0,0.5912,,,,,
JVASP-71125,BeSiOs4,1.03446,0.0,na,1.1873,,,,,
JVASP-95353,K2BaCoN6O12,-0.92762,0.0,na,0.1219,,,,,
JVASP-71227,Hf4BePb,0.64922,0.0,na,0.7252,,,,,
JVASP-74577,BeVBi4,1.26352,0.0,na,1.3141,,,,,
JVASP-70723,NaCaBe2,0.40402,0.0,na,0.478,,,,,
JVASP-74316,K2BeTe,-0.05393,0.0,0.0,0.777,,,,,
JVASP-74804,BeZnIn4,0.60965,0.0,na,0.6132,,,,,
JVASP-70802,ScBe2Bi,0.18313,0.0,na,0.5494,,,,,
JVASP-71466,Na2MgBe,0.32048,0.0,na,0.3307,,,,,
JVASP-93663,Cu2GeS3,-0.37962,0.0,na,0.0033,,,,,
JVASP-91420,Rb2LiNbS4,-1.36539,2.308,na,0.0,,,,,
JVASP-92851,Mg6NbMo,0.20531,0.0,na,0.235,,,,,
JVASP-92601,LaCrO3,-2.95277,0.15,na,0.0839,,,,,
JVASP-71159,BeMo4Os,0.54591,0.0,0.0,0.6215,,,,,
JVASP-94340,ThB2Rh2C,-0.70674,0.0,na,0.0,,,,,
JVASP-15650,Ca2CuO3,-2.4366,0.0,na,0.0141,,,,,
JVASP-71787,BeSi2W,0.14353,0.0,0.0,0.3855,,,,,
JVASP-74661,BeCd2Si,0.58727,0.0,na,0.5934,,,,,
JVASP-74442,Be2CdIn,0.61267,0.0,na,0.6165,,,,,
JVASP-93140,CeMg6C,0.21674,0.0,na,0.2932,,,,,
JVASP-94765,Mg6AlW,0.14473,0.0,na,0.2291,,,,,
JVASP-93725,Nd2Bi,-0.69627,0.0,na,0.0,,,,,
JVASP-105696,FeO,-1.00407,0.0,na,0.2046,,,,,
JVASP-43820,Li2CrP2O7,-2.24916,0.796,na,0.0,,,,,
JVASP-96504,RbTaP2O8,-2.58079,3.409,na,0.0086,,,,,
JVASP-105829,NdAlAg2,-0.32449,0.0,na,0.0298,,,,,
JVASP-74999,Be2CuSe,0.291,0.0,na,0.8108,,,,,
JVASP-96778,Ce2Ni7P4,-0.84346,0.0,na,0.0,,,,,
JVASP-99254,Rb2VAgS4,-1.06935,1.379,na,0.0,,,,,
JVASP-71582,BeTl2Fe,0.4809,0.0,0.0,0.5822,,,,,
JVASP-75041,Na2BeP,0.32321,0.0,na,0.6569,,,,,
JVASP-70644,MnBe2Os,-0.0607,0.0,na,0.1157,,,,,
JVASP-70873,Mn2BeCl,0.20985,0.0,na,0.8136,,,,,
JVASP-94144,Mg6CoW,0.21076,0.0,na,0.2991,,,,,
JVASP-71732,BeCuBr2,0.20416,0.0,na,1.0058,,,,,
JVASP-14640,Ce,1e-05,0.0,na,0.0,,,,,
JVASP-74704,TiBeBi2,0.50151,0.0,0.0,0.623,,,,,
JVASP-92646,MnNF3,-0.1633,0.0,na,1.8664,,,,,
JVASP-95206,NaLiSO4,-1.96753,5.984,na,0.0,,,,,
JVASP-70762,TaBe2Bi,0.65639,0.0,na,0.8498,,,,,
JVASP-72097,KBeIr2,1.03271,0.0,na,1.1891,,,,,
JVASP-50712,Li3SbP2O8,-2.24438,3.156,na,0.072,,,,,
JVASP-94096,Mg6VB,0.18559,0.0,na,0.3873,,,,,
JVASP-94379,Y5Mg,0.02854,0.0,na,0.0634,,,,,
JVASP-71498,BeTl2Sn,0.3443,0.0,na,0.3443,,,,,
JVASP-95044,EuInPt4,-0.82139,0.0,na,0.0,,,,,
JVASP-70983,ZrScBe2,-0.07278,0.0,na,0.08,,,,,
JVASP-70907,BeTc2Ni,-0.07202,0.0,na,0.1617,,,,,
JVASP-74618,Be2InCo,0.2,0.0,na,0.4485,,,,,
JVASP-3705,SrHCl,-1.71826,3.981,5.288,0.0156,,,,,
JVASP-91480,K3Sb7S3O9,-1.34278,1.477,na,0.005,,,,,
JVASP-15314,Sc3AlC,-0.66365,0.0,0.0,0.0,,,,,
JVASP-48921,Li6FeO5F,-2.04764,0.879,na,0.0781,,,,,
JVASP-92696,CaGa2As2,-0.68108,0.187,na,0.0,,,,,
JVASP-69432,Be2NiSe,0.07602,0.0,na,0.7749,,,,,
JVASP-107878,Ba2OsO4,-2.22621,0.0,na,0.0,,,,,
JVASP-91336,BaGe2P2,-0.56713,0.456,na,0.0,,,,,
JVASP-71317,BeIn2Cu,0.21512,0.0,na,0.2724,,,,,
JVASP-72399,BeGe2Pb,0.58542,0.0,na,0.5854,,,,,
JVASP-94282,ZnTe,-0.33119,0.298,na,0.1376,,,,,
JVASP-85712,CaH2CClO3,-1.74276,3.618,4.945,0.0,,,,,
JVASP-70485,Be2CuSn,0.37573,0.0,na,0.4886,,,,,
JVASP-18952,Cr3Si,-0.2875,0.0,0.0,0.0,,,,,
JVASP-50508,Li5Cu3Sb2O10,-1.58283,0.0,na,0.0481,,,,,
JVASP-48724,LiTiO2,-2.82552,0.0,na,0.0496,,,,,
JVASP-92902,Mg6CrMo,0.31128,0.0,na,0.3113,,,,,
JVASP-74942,Be2CrCu,0.06854,0.0,na,0.2256,,,,,
JVASP-74268,ZrBe2Zn,0.06436,0.0,na,0.3267,,,,,
JVASP-74223,BeSnCl2,0.06243,0.0,na,1.1818,,,,,
JVASP-94242,BaMg6Co,0.15362,0.0,na,0.2396,,,,,
JVASP-106127,Bi2PdPt,-0.28426,0.0,na,0.0,,,,,
JVASP-74395,NaBeBi2,0.31097,0.0,0.0,0.4858,,,,,
JVASP-71467,BePSe2,-0.03086,0.0,na,0.4567,,,,,
JVASP-70803,HfTa2Be,0.11793,0.0,na,0.2258,,,,,
JVASP-14130,NaSn2Cl5,-1.29009,2.764,na,0.0052,,,,,
JVASP-1855,LiCrO2,-2.2316,0.992,na,0.0,,,,,
JVASP-74891,K2BeSi,0.75782,0.0,na,0.7633,,,,,
JVASP-14927,V2NiSe4,-0.61536,0.0,na,0.0099,,,,,
JVASP-71540,Na2BeIn,0.28054,0.0,na,0.3819,,,,,
JVASP-70942,Hf2BeGa,-0.05113,0.0,0.0,0.3167,,,,,
JVASP-93433,Fe2Ge,0.27131,0.0,na,0.3578,,,,,
JVASP-14885,CrB,-0.48278,0.0,na,0.0,,,,,
JVASP-71128,Be2GeBr,0.76007,0.0,na,1.1609,,,,,
JVASP-71583,K2BeGa,0.34514,0.0,na,0.4401,,,,,
JVASP-92982,CaCrF6,-3.1674,0.0,0.0,0.0,,,,,
JVASP-92743,KFe2Se2,-0.5204,0.0,na,0.05,,,,,
JVASP-71160,BeBiBr2,0.01357,0.0,na,0.8152,,,,,
JVASP-71386,TaBeBr,0.27596,0.0,0.0,0.8823,,,,,
JVASP-70874,LaBe2Sn,0.20598,0.0,na,0.5959,,,,,
JVASP-74317,BeBi2Ir,0.59266,0.0,na,0.7631,,,,,
JVASP-105896,Y2Co2I,-0.67889,0.0,na,0.0,,,,,
JVASP-70763,LaZr2Be,0.1252,0.0,na,0.1973,,,,,
JVASP-48185,Li3Mn8O4F12,-2.25494,0.0,na,0.0,,,,,
JVASP-72402,BeNiGe2,0.27491,0.0,na,0.5087,,,,,
JVASP-71951,Sc2Be2Pd,-0.08946,0.0,na,0.4096,,,,,
JVASP-72102,ZrBeGa2,-0.3534,0.0,na,0.0864,,,,,
JVASP-71049,ScBeTl,-0.04784,0.0,0.0,0.1311,,,,,
JVASP-71499,K2BeGe,0.3342,0.0,na,0.3385,,,,,
JVASP-71426,MnBePb2,0.42415,0.0,0.0,0.5123,,,,,
JVASP-71675,Li2BeTc,0.22616,0.0,na,0.3087,,,,,
JVASP-18842,K2TaCl6,-1.69853,0.0,na,0.0,,,,,
JVASP-70486,ZrBe2Co,-0.15757,0.0,na,0.1954,,,,,
JVASP-15490,LuInCu2,-0.33859,0.0,na,0.0,,,,,
JVASP-71279,TaTiBe2,-0.02402,0.0,0.0,0.1694,,,,,
JVASP-71201,CaBeCr2,0.36593,0.0,na,0.4487,,,,,
JVASP-69433,BeTc2Te2,0.65382,0.0,0.0,0.823,,,,,
JVASP-93920,UGaCu,-0.11163,0.0,na,0.0,,,,,
JVASP-15,ZrTe,-0.64471,0.0,0.0,0.2749,,,,,
JVASP-93821,As2W,-0.02076,0.0,na,0.1648,,,,,
JVASP-70909,KBe2Bi,0.43528,0.0,na,0.656,,,,,
JVASP-70984,BeFeW2,-0.22757,0.0,na,0.1522,,,,,
JVASP-74269,BeNiBr2,0.61814,0.0,na,1.4198,,,,,
JVASP-93771,DyAlGe,-0.67226,0.0,na,0.0,,,,,
JVASP-93371,CeCo5,-0.12832,0.0,na,0.0264,,,,,
JVASP-18664,V5Sb4,-0.10038,0.0,0.0,0.0191,,,,,
JVASP-71089,NaBe2Pt,0.08056,0.0,0.0,0.4893,,,,,
JVASP-71836,BeCr2Tc,0.04755,0.0,0.0,0.1297,,,,,
JVASP-74360,Be2NbRu,-0.06025,0.0,0.0,0.2397,,,,,
JVASP-74662,BeNiBi2,0.56287,0.0,na,0.7966,,,,,
JVASP-74520,Be2CrSb,0.3435,0.0,0.0,0.5005,,,,,
JVASP-15447,USi2Pd2,-0.55397,0.0,0.0,0.0,,,,,
JVASP-70943,Ta2BeCl,0.11497,0.0,na,0.7286,,,,,
JVASP-74892,BeSiBi2,0.73746,0.0,na,0.7386,,,,,
JVASP-74396,Be2VGa,0.19121,0.0,na,0.3658,,,,,
JVASP-92812,RbWO3,-2.30817,0.0,na,0.0631,,,,,
JVASP-71994,MnBeGe2,0.28936,0.0,na,0.3862,,,,,
JVASP-107968,Pm3Dy,0.00292,0.0,na,0.0042,,,,,
JVASP-92318,MgSb,-0.23741,0.0,na,0.1217,,,,,
JVASP-18704,MgGa2,-0.1309,0.0,na,0.0,,,,,
JVASP-92456,La2SeO2,-3.31526,2.463,na,0.0,,,,,
JVASP-1327,AlP,-0.75173,1.794,2.563,0.0,,,,,
JVASP-50820,Li3BiO3,-1.73675,2.987,na,0.0995,,,,,
JVASP-106047,Li2IBr,-1.46356,4.209,5.884,0.053,,,,,
JVASP-95687,Li2ZrF6,-3.60891,6.282,na,0.002,,,,,
JVASP-15100,DySi2Cu2,-0.55142,0.0,na,0.0,,,,,
JVASP-71387,Be2PBr,-0.02416,0.0,na,0.5058,,,,,
JVASP-71021,BeZn2Fe,0.04168,0.0,na,0.1625,,,,,
JVASP-14970,Si2Mo,-0.33639,0.0,0.0,0.0,,,,,
JVASP-14859,NiTe,-0.16015,0.0,na,0.0146,,,,,
JVASP-99060,RbInMo2O8,-2.11126,4.071,4.721,0.0,,,,,
JVASP-93193,HfMg6Ti,0.13543,0.0,na,0.1384,,,,,
JVASP-91163,AgPd2Pb,0.20677,0.0,na,0.4039,,,,,
JVASP-94869,InPd5Se,-0.33523,0.0,na,0.0143,,,,,
JVASP-96051,NdCoO3,-2.43473,0.204,na,0.012,,,,,
JVASP-105769,HfScTc2,-0.30798,0.0,na,0.0622,,,,,
JVASP-71228,BeCdGe2,0.40046,0.0,na,0.4029,,,,,
JVASP-72412,BeCd2Ir,0.21982,0.0,na,0.379,,,,,
JVASP-74754,TaBe2Pd,-0.0043,0.0,0.0,0.3763,,,,,
JVASP-70764,Be2SeCl,0.41169,0.0,na,1.4365,,,,,
JVASP-75001,K2BeMo,1.48117,0.0,0.0,1.5959,,,,,
JVASP-74849,Be2ZnP,0.43595,0.0,na,0.5653,,,,,
JVASP-71897,TiBeGe2,-0.14592,0.0,0.0,0.174,,,,,
JVASP-71051,Be2NbIn,0.08143,0.0,na,0.2713,,,,,
JVASP-72112,ZrBeCo2,-0.2475,0.0,na,0.116,,,,,
JVASP-92560,ThCoSi3,-0.62147,0.0,na,0.02,,,,,
JVASP-95484,BeF2,-3.40295,8.036,13.386,0.0371,,,,,
JVASP-44314,LiCoSnO4,-1.63468,1.025,na,0.1046,,,,,
JVASP-74481,BeCuP,0.25261,0.0,na,0.388,,,,,
JVASP-74579,Sr2BeV,0.84807,0.0,0.0,0.9239,,,,,
JVASP-105627,K2LiAuCl6,-1.26228,0.0,na,0.0685,,,,,
JVASP-105979,Ti2NbAl,-0.27689,0.0,0.0,0.0,,,,,
JVASP-94969,DyMn2O4,-2.4079,0.0,na,0.0921,,,,,
JVASP-71090,CaBe2Pb,0.39673,0.0,na,0.7234,,,,,
JVASP-93664,ErCdNi4,-0.41001,0.0,na,0.0,,,,,
JVASP-19928,TmCu,-0.3439,0.0,0.0,0.0,,,,,
JVASP-70804,Be2TlCl,0.70047,0.0,na,1.2601,,,,,
JVASP-92853,BaMg6B,0.23826,0.0,na,0.3787,,,,,
JVASP-69434,Be2TlSe,0.49689,0.0,na,0.9621,,,,,
JVASP-70985,BeZnHg4,0.78268,0.097,na,0.7827,,,,,
JVASP-74444,TaBeOs,0.09513,0.0,0.0,0.3629,,,,,
JVASP-74363,YMgBe,0.12508,0.0,na,0.195,,,,,
JVASP-94145,Mg6TiCo,0.18326,0.0,na,0.2872,,,,,
JVASP-29262,Bi2SeO5,-1.25067,2.911,4.246,0.0,,,,,
JVASP-91261,LiMnPO4,-2.21711,2.034,na,0.0015,,,,,
JVASP-81,GaSe,-0.58159,0.725,2.137,0.0006,,,,,
JVASP-74805,Be2FeSi,-0.10281,0.0,na,0.1416,,,,,
JVASP-74271,Be2InCl,0.61559,0.0,0.0,1.1766,,,,,
JVASP-70725,CaBe2Ni,0.28631,0.0,na,0.5576,,,,,
JVASP-94766,Mg6AlMo,0.15666,0.0,na,0.226,,,,,
JVASP-92602,NaMoO3,-2.23256,0.0,na,0.0044,,,,,
JVASP-106133,BaInGe,-0.53557,0.0,na,0.0582,,,,,
JVASP-70910,Sc2BeIn,-0.00659,0.0,na,0.3373,,,,,
JVASP-74663,Be2CuOs,0.00662,0.0,na,0.1158,,,,,
JVASP-92272,MgBi,-0.13664,0.0,na,0.0859,,,,,
JVASP-71389,SrBe2W,0.28502,0.0,na,0.4975,,,,,
JVASP-94283,ErFe2,-0.17669,0.0,na,0.0,,,,,
JVASP-71791,Be2WCl,0.24679,0.0,0.0,1.0006,,,,,
JVASP-52305,Ga2CuO4,-1.56959,0.0,na,0.0693,,,,,
JVASP-92518,Ca2MgPt2,-0.98869,0.0,na,0.0,,,,,
JVASP-93142,CeHfMg6,0.14448,0.0,na,0.1523,,,,,
JVASP-93728,Zr2H3Pd,-0.36931,0.0,na,0.2736,,,,,
JVASP-71618,ZrBeSi2,-0.21594,0.0,na,0.3254,,,,,
JVASP-71839,Sr2Be2Bi,0.15162,0.0,na,0.6986,,,,,
JVASP-95045,ScAlGe,-0.61259,0.0,na,0.0,,,,,
JVASP-96505,Ta4FeS8,-1.11708,0.0,na,0.0,,,,,
JVASP-74226,SrBeSe2,-0.53361,0.0,na,1.0336,,,,,
JVASP-72123,TiBeNb2,0.08189,0.0,na,0.1762,,,,,
JVASP-107880,LiMnF3,-2.70009,1.837,na,0.0173,,,,,
JVASP-3708,BaHCl,-1.71884,3.582,4.838,0.0145,,,,,
JVASP-71541,BeOsBr,0.60434,0.0,na,1.1388,,,,,
JVASP-72416,BeCd2Co,0.38894,0.0,0.0,0.5519,,,,,
JVASP-94243,Mg6FeSn,0.09477,0.0,na,0.1915,,,,,
JVASP-74521,Be2CrGe,0.23573,0.0,na,0.3928,,,,,
JVASP-70649,YBe2Ir,-0.2212,0.0,na,0.3174,,,,,
JVASP-74707,Be2NiMo,-0.14923,0.0,0.0,0.195,,,,,
JVASP-93328,ErCo2,-0.28952,0.0,na,0.0,,,,,
JVASP-94421,CaMnSn,-0.23978,0.0,na,0.2468,,,,,
JVASP-95354,Co3B2O6,-1.54013,0.0,na,0.1431,,,,,
JVASP-74185,Be2NbTc,0.01652,0.0,0.0,0.3027,,,,,
JVASP-99255,SrB2O4,-2.90384,5.26,na,0.0102,,,,,
JVASP-74580,BeNbBr2,0.70354,0.0,na,1.5052,,,,,
JVASP-108167,MgScSe3,-1.18535,0.0,na,0.2647,,,,,
JVASP-42641,Li3V2Cr2O8,-2.31384,0.0,na,0.074,,,,,
JVASP-91421,YbSeO3F,-2.08494,0.0,na,0.0,,,,,
JVASP-107973,PmPrMg2,-0.12714,0.0,na,0.0,,,,,
JVASP-2023,TlBiTe2,-0.3112,0.456,0.755,0.0,,,,,
JVASP-74850,Be2CdRu,0.1357,0.0,na,0.408,,,,,
JVASP-92985,ZrVF6,-3.41067,1.084,na,0.0,,,,,
JVASP-74274,BeGe2Se,0.64476,0.0,na,1.1099,,,,,
JVASP-69438,HfBe2Rh,-0.27467,0.0,na,0.2908,,,,,
JVASP-71585,Na2LiBe,0.33197,0.0,na,0.346,,,,,
JVASP-94097,Mg6NiW,0.18143,0.0,na,0.3414,,,,,
JVASP-74945,SrBeBi2,0.08141,0.0,na,0.5648,,,,,
JVASP-74622,Sc2BeTc,-0.16996,0.0,0.0,0.0173,,,,,
JVASP-105699,BaCaI4,-1.69054,2.669,4.02,0.1184,,,,,
JVASP-93500,Ta2CN3,0.14376,0.0,na,1.169,,,,,
JVASP-71500,NaSr2Be,0.35285,0.0,na,0.3769,,,,,
JVASP-93434,SrHg2,-0.36697,0.0,na,0.0023,,,,,
JVASP-71161,Zr2BeCl,-0.23732,0.0,na,0.5149,,,,,
JVASP-16223,PrSi,-0.72614,0.0,na,0.0,,,,,
JVASP-71091,Ta2BeCr,0.26574,0.0,na,0.4111,,,,,
JVASP-42881,LiSc2Ir,-0.73176,0.0,na,0.0,,,,,
JVASP-91188,Ba2HgBi,-0.75176,0.0,na,0.0192,,,,,
JVASP-74364,Be2OsPd,-0.31744,0.0,na,0.0048,,,,,
JVASP-72424,BeNb2Pt,-0.2694,0.0,na,0.1835,,,,,
JVASP-71734,Li2BeNi,0.00134,0.0,0.0,0.2356,,,,,
JVASP-1378,ScB2,-0.88426,0.0,0.0,0.0,,,,,
JVASP-108063,TiAl2Cr3C2,-0.34077,0.0,na,0.0203,,,,,
JVASP-74482,BeGaHg,0.43272,0.0,0.0,0.4327,,,,,
JVASP-71052,BeGaIr2,-0.28638,0.0,0.0,0.1803,,,,,
JVASP-74318,BeSiNi,-0.01893,0.0,0.0,0.2997,,,,,
JVASP-71545,Be2NbOs,-0.10413,0.0,na,0.1176,,,,,
JVASP-74709,BeRhSe,0.0252,0.0,na,0.6464,,,,,
JVASP-92390,NiO,-0.63432,0.0,na,0.128,,,,,
JVASP-15268,SrP2Ru2,-0.92415,0.0,na,0.0,,,,,
JVASP-92903,Mg6MoW,0.2014,0.0,na,0.271,,,,,
JVASP-74227,Hf2MgBe,0.20365,0.0,0.0,0.2871,,,,,
JVASP-71677,TaBeGe2,0.17114,0.0,na,0.3547,,,,,
JVASP-3309,K2CuAs,-0.44436,1.282,na,0.0,,,,,
JVASP-15491,CeSF,-3.13079,0.0,na,0.0,,,,,
JVASP-18745,SmMg3,-0.10205,0.0,na,0.0,,,,,
JVASP-48267,Li5Co2O6,-1.62364,0.341,na,0.2129,,,,,
JVASP-74664,Be2MoW,0.02524,0.0,na,0.3853,,,,,
JVASP-71586,BeTl2Co,0.34423,0.0,na,0.5023,,,,,
JVASP-14860,CeFe2,-0.11722,0.0,na,0.0,,,,,
JVASP-93921,HfMg,0.1329,0.0,na,0.1329,,,,,
JVASP-15315,MgCuAs,-0.36532,0.0,na,0.03,,,,,
JVASP-74399,BePtBr2,0.73195,0.0,0.0,1.5336,,,,,
JVASP-105770,Hf2OsRu,-0.80385,0.0,na,0.0,,,,,
JVASP-72426,K2BeRu,1.09823,0.0,0.0,1.2374,,,,,
JVASP-71229,MnBeSe2,-0.06142,0.0,na,0.577,,,,,
JVASP-74275,ScBeP4,0.34045,0.0,na,0.932,,,,,
JVASP-74946,BePd2W,0.0064,0.0,na,0.5148,,,,,
JVASP-105898,Sr2InOsO6,-2.112,0.272,na,0.0,,,,,
JVASP-71162,BeGeSe2,-0.18385,0.0,na,0.4114,,,,,
JVASP-70944,BeBiIr2,0.21058,0.0,0.0,0.377,,,,,
JVASP-2157,SbF3,-2.44631,4.626,6.566,0.0,,,,,
JVASP-74851,Na2BeW,1.19892,0.0,na,1.3808,,,,,
JVASP-74524,Be2GaW,-0.07728,0.0,na,0.1352,,,,,
JVASP-74893,Be2CdGa,0.5044,0.0,na,0.5069,,,,,
JVASP-70488,Be2PdW,0.04616,0.0,0.0,0.5076,,,,,
JVASP-105628,K3ScI6,-1.357,2.281,na,0.0647,,,,,
JVASP-96779,HfAlCo2,-0.5985,0.0,0.0,0.0,,,,,
JVASP-92744,K3CO,0.14463,0.204,na,0.9131,,,,,
JVASP-95689,Ca5P3ClO12,-3.07479,5.68,na,0.0,,,,,
JVASP-94914,VFe2Se4,-0.39023,0.0,na,0.0872,,,,,
JVASP-105831,NdAs3,-0.54681,0.0,0.0,0.2353,,,,,
JVASP-71738,MgBe2Br,0.62161,0.0,na,1.2282,,,,,
JVASP-3201,YAgTe2,-0.95552,0.844,1.162,0.0,,,,,
JVASP-71792,LiTaBe,0.39717,0.0,na,0.5314,,,,,
JVASP-71546,Be2RhCl,-0.23654,0.0,na,0.6535,,,,,
JVASP-99061,La6P17Pd6,-0.95758,0.0,na,0.0078,,,,,
JVASP-75002,ScBeCd2,0.02837,0.0,0.0,0.27,,,,,
JVASP-106050,LiCu3O3,-0.87342,0.0,na,0.1259,,,,,