jid,formula,formation_energy_per_atom,optb88vdw_bandgap,mbj_bandgap,ehull,spacegroup_number,natoms,volume,bulk_modulus_kv,shear_modulus_gv
JVASP-43597,LiMnF4,-2.73377,0.026,na,0.038,,,,,
JVASP-93295,Mn3N2,-0.24685,0.0,na,0.1295,,,,,
JVASP-3207,CuBS2,-0.42232,1.872,2.202,0.0,,,,,
JVASP-20097,Th2Pd,-0.5351,0.0,0.0,0.0001,,,,,
JVASP-1993,KBr,-1.87002,4.602,7.48,0.0,,,,,
JVASP-92674,UCu2As2,-0.3558,0.0,na,0.051,,,,,
JVASP-92368,Bi2O3,-1.29176,1.968,na,0.0721,,,,,
JVASP-99698,K2GaAuBr6,-0.98948,0.0,na,0.1114,,,,,
JVASP-14976,NdAs,-1.5643,0.0,0.0,0.0,,,,,
JVASP-95585,LiTiPO5,-2.76731,3.098,na,0.0,,,,,
JVASP-95288,SrC2S2N2,-0.56741,3.816,4.744,0.1164,,,,,
JVASP-95422,TlFeO3,-1.05728,0.0,na,0.0961,,,,,
JVASP-48527,Li4Fe3CoO8,-1.74149,0.0,na,0.0241,,,,,
JVASP-18923,NbS,-0.98529,0.0,0.0,0.0489,,,,,
JVASP-92496,CeCoGe3,-0.56438,0.0,na,0.0378,,,,,
JVASP-14864,YSb,-1.23708,0.0,0.0,0.0,,,,,
JVASP-93529,MgAl2,0.53577,0.0,na,0.5722,,,,,
JVASP-99476,TbK2LiCl6,-2.17711,5.044,na,0.0056,,,,,
JVASP-14933,ZrS,-1.58926,0.0,na,0.0,,,,,
JVASP-94363,SrMg2,0.13612,0.0,na,0.2968,,,,,
JVASP-95265,FeP3H6O9,-1.41167,0.887,na,0.0763,,,,,
JVASP-99800,LiPaO3,-3.10015,3.251,na,0.0,,,,,
JVASP-15748,SmAl2Si2,-0.41938,0.0,na,0.0,,,,,
JVASP-93844,KLiS,-1.35117,2.976,na,0.0496,,,,,
JVASP-96605,NaHNO2,-0.9026,2.981,na,0.1315,,,,,
JVASP-106174,Ni2SbTe,-0.19914,0.0,na,0.0154,,,,,
JVASP-93405,LaPd5,-0.5935,0.0,na,0.0,,,,,
JVASP-106099,CoOs,0.12116,0.0,na,0.1269,,,,,
JVASP-99893,ZrMoC2,-0.48632,0.0,na,0.0822,,,,,
JVASP-12178,Li2WS4,-0.92454,1.318,2.322,0.1569,,,,,
JVASP-1804,KPrS2,-2.00828,2.254,3.261,0.0,,,,,
JVASP-99427,Mg2Sc,-0.02342,0.0,na,0.0137,,,,,
JVASP-93246,Sm3AlN,-0.90778,0.0,na,0.0,,,,,
JVASP-108054,VNi3,-0.1244,0.0,na,0.1311,,,,,
JVASP-44049,Fe4OF7,-1.95628,0.0,na,0.0273,,,,,
JVASP-99612,Ti3AgS6,-1.26675,0.0,0.0,0.0179,,,,,
JVASP-93895,TiCo2,-0.33748,0.0,na,0.0105,,,,,
JVASP-95769,MnCoP,-0.56317,0.0,na,0.0,,,,,
JVASP-108157,BaLaMn2O6,-2.66299,0.0,na,0.0245,,,,,
JVASP-96939,C2SO4F4,-1.2933,6.275,na,0.1943,,,,,
JVASP-92579,K,0.1078,0.0,na,0.0,,,,,
JVASP-15275,TlFeS2,-0.46675,0.0,0.0,0.0644,,,,,
JVASP-94308,NClO4,1.27214,0.0,na,1.3678,,,,,
JVASP-48341,NaVO3,-2.45614,3.024,3.487,0.0,,,,,
JVASP-94404,Mg2Sn,-0.06262,0.0,na,0.1941,,,,,
JVASP-92772,SmNiO3,-2.28447,0.0,na,0.1077,,,,,
JVASP-15230,KTeAu,-0.70365,0.0,0.0,0.0,,,,,
JVASP-37954,Nb3CrSe6,-0.83932,0.0,na,0.0,,,,,
JVASP-93699,ErHCl,-1.48295,0.0,na,0.0,,,,,
JVASP-92369,MnPbO3,-1.55105,0.0,na,0.0535,,,,,
JVASP-92716,Rb2Te2Pd,-0.85805,0.722,na,0.0,,,,,
JVASP-106023,NaSbTe2,-0.48677,0.803,na,0.0,,,,,
JVASP-99568,K2InSbBr6,-1.07392,0.141,na,0.0994,,,,,
JVASP-91307,Mn6Ni16P7,-0.34328,0.0,na,0.044,,,,,
JVASP-97004,RbMnO2,-1.77639,0.646,na,0.0162,,,,,
JVASP-42854,AgHgPd2,-0.06967,0.0,na,0.0,,,,,
JVASP-15451,NbAlNi2,-0.44147,0.0,0.0,0.0,,,,,
JVASP-99752,YbBa3,0.04735,0.0,0.0,0.0474,,,,,
JVASP-92499,AlFe2B2,-0.37049,0.0,na,0.0,,,,,
JVASP-92623,Er2InNi2,-0.60459,0.0,na,0.0,,,,,
JVASP-99699,K2YAgI6,-1.17143,2.71,na,0.0949,,,,,
JVASP-99360,Li2LaTa2O7,-3.03092,0.0,na,0.0589,,,,,
JVASP-14091,Sr2UO4,-3.11195,0.0,0.0,0.1507,,,,,
JVASP-14819,Ge,0.24371,0.0,na,0.0,,,,,
JVASP-93799,ReN2,0.18933,0.0,na,0.2372,,,,,
JVASP-93350,PrZn2,-0.39324,0.0,na,0.0,,,,,
JVASP-99477,K2PrCuI6,-1.11969,1.936,na,0.0928,,,,,
JVASP-94891,U2Mo2C3,-0.20145,0.0,na,0.1348,,,,,
JVASP-94845,Ga2HgS4,-0.55124,1.533,na,0.0,,,,,
JVASP-99657,Ho4SiGe3,-0.85345,0.0,na,0.0056,,,,,
JVASP-94364,Sr5Mg,0.02582,0.0,na,0.066,,,,,
JVASP-96394,AlH4NF4,-2.06924,7.24,na,0.0,,,,,
JVASP-15127,MgAl2Cu,-0.21539,0.0,0.0,0.0,,,,,
JVASP-95091,Ba7Al4Ge9,-0.59818,0.0,na,0.0014,,,,,
JVASP-17352,MnAlO3,-1.38991,0.0,0.0,1.1505,,,,,
JVASP-93530,CaMg2,0.05284,0.0,na,0.1946,,,,,
JVASP-106176,KCrO2,-1.98502,1.196,na,0.0007,,,,,
JVASP-95425,CuHgSI,-0.14625,0.515,na,0.0434,,,,,
JVASP-94944,TbIn5Co,0.05249,0.0,na,0.3019,,,,,
JVASP-51148,ReOsRu,0.66962,0.0,na,0.7142,,,,,
JVASP-105725,BeAl3,0.16211,0.0,na,0.1621,,,,,
JVASP-96811,LiUPH8O10,-1.77669,2.621,na,0.0,,,,,
JVASP-92537,USi3Ir,-0.46452,0.0,na,0.0092,,,,,
JVASP-99003,CeBPt4,-0.75278,0.0,na,0.0098,,,,,
JVASP-93753,CaZnSn,-0.54909,0.0,na,0.0384,,,,,
JVASP-91373,BaAl2O4,-3.30697,4.052,na,0.0036,,,,,
JVASP-43110,Li2Mn3CoO8,-1.86147,0.066,na,0.0605,,,,,
JVASP-99894,ZrB4Mo,-0.61384,0.0,na,0.0939,,,,,
JVASP-92675,PdN2Cl2,0.83209,0.0,na,1.1281,,,,,
JVASP-1774,MgSe,-1.3561,2.782,4.28,0.0034,,,,,
JVASP-99527,Na3AuF6,-2.01637,0.6,1.934,0.2555,,,,,
JVASP-42149,Li7CuO4,-1.78359,2.425,na,0.1215,,,,,
JVASP-15612,NdCo2P2,-0.97262,0.0,0.0,0.0,,,,,
JVASP-99847,Tb3Te,-0.4589,0.0,0.0,0.2129,,,,,
JVASP-91244,UF5,-3.5811,0.427,na,0.0395,,,,,
JVASP-93247,Pr3AlN,-0.80412,0.0,na,0.0,,,,,
JVASP-105875,Tm3Sn,-0.38134,0.0,0.0,0.0185,,,,,
JVASP-108056,TlInF6,-2.22084,2.714,5.068,0.0066,,,,,
JVASP-92372,Mn3SnN,-0.15832,0.0,na,0.0421,,,,,
JVASP-95294,Sc2Te3,-1.28379,0.015,na,0.0074,,,,,
JVASP-99428,Nd2TlIn,-0.45927,0.0,0.0,0.0087,,,,,
JVASP-92580,SnCCl3,0.45339,0.0,na,1.2262,,,,,
JVASP-96745,YCrO3,-3.04549,1.004,na,0.0,,,,,
JVASP-99376,Mn2PdPt,-0.18165,0.0,0.0,0.0,,,,,
JVASP-106101,CoCu2SnSe4,-0.22018,0.0,na,0.0812,,,,,
JVASP-95587,Na3Li3Al2F12,-3.3921,7.581,na,0.0,,,,,
JVASP-105945,CoH6Cl2,-0.0417,0.202,na,0.162,,,,,
JVASP-15564,NdNiC2,-0.33741,0.0,0.0,0.0,,,,,
JVASP-91450,LiH3CO3,-1.26376,5.242,na,0.0571,,,,,
JVASP-95268,S,-0.01738,2.046,na,0.0,,,,,
JVASP-99361,Ba3NiO4,-2.33005,0.61,na,0.0515,,,,,
JVASP-108158,BaNaFe4As4,-0.4384,0.0,na,0.0,,,,,
JVASP-93406,Li2In,-0.31858,0.0,na,0.0,,,,,
JVASP-14600,Pu,-0.09757,0.0,na,0.0,,,,,
JVASP-96880,Li3H6Rh,-0.43928,2.582,na,0.0,,,,,
JVASP-99702,KAuCl3,-0.98365,0.0,na,0.0,,,,,
JVASP-99478,KInBr3,-1.15913,0.502,na,0.0863,,,,,
JVASP-93296,Ti2Cu3,-0.08883,0.0,na,0.0466,,,,,
JVASP-99801,Li3Sm,0.22136,0.0,na,0.222,,,,,
JVASP-52901,Ca4H12Rh3,-0.61748,0.0,na,0.0,,,,,
JVASP-96620,Zn2AsHO5,-1.39198,2.142,na,0.0,,,,,
JVASP-94405,Mg2Sb,-0.0199,0.0,na,0.3392,,,,,
JVASP-93952,TiGe2,-0.3774,0.0,na,0.0,,,,,
JVASP-97007,NaAlSiO4,-2.22238,2.412,na,0.6889,,,,,
JVASP-93531,Ca2Mg,0.0205,0.0,na,0.1035,,,,,
JVASP-93896,KMnCl,-0.1873,0.0,na,1.2049,,,,,
JVASP-42676,LiCuSbO4,-1.45581,0.498,na,0.0598,,,,,
JVASP-99940,PrMnCoGe2,-0.48981,0.0,na,0.0429,,,,,
JVASP-99895,ZrAlW4,-0.2692,0.0,na,0.2646,,,,,
JVASP-1915,InSe,-0.50623,0.174,na,0.0,,,,,
JVASP-93800,YbZnPb,-0.48958,0.0,na,0.0,,,,,
JVASP-93468,Tl2Au,-0.01634,0.0,na,0.0185,,,,,
JVASP-20074,YbGa4,-0.41695,0.0,0.0,0.0025,,,,,
JVASP-106177,MgCrF6,-3.01692,0.0,na,0.0,,,,,
JVASP-1807,KSmS2,-2.03696,2.267,3.313,0.0,,,,,
JVASP-99127,KLi2BO3,-2.35786,4.504,na,0.0,,,,,
JVASP-96940,LaSc3B4O12,-3.15813,3.945,na,0.109,,,,,
JVASP-105726,Ca2MgCd,-0.26732,0.0,na,0.0082,,,,,
JVASP-94847,HgAsPd5,-0.22215,0.0,na,0.0,,,,,
JVASP-15400,ErInPd,-0.82797,0.0,na,0.0,,,,,
JVASP-107960,MnCo3,0.04458,0.0,na,0.0679,,,,,
JVASP-94945,UGa5Ru,-0.31928,0.0,na,0.0,,,,,
JVASP-99379,Mo3Pt,-0.1032,0.0,na,0.0633,,,,,
JVASP-15654,YbSi2Ni2,-0.71781,0.0,0.0,0.0,,,,,
JVASP-94309,TeO2,-0.59879,1.562,na,0.5192,,,,,
JVASP-95094,Na2Te3Mo3O16,-1.78463,2.382,na,0.0111,,,,,
JVASP-14567,YAg,-0.38736,0.0,0.0,0.0,,,,,
JVASP-92373,Mn4N,-0.18657,0.0,na,0.0138,,,,,
JVASP-106024,NaNdS2,-1.86402,0.358,0.948,0.085,,,,,
JVASP-18748,SnMo3,0.09017,0.0,na,0.0902,,,,,
JVASP-15150,Li2SbPt,-0.68333,0.0,na,0.0,,,,,
JVASP-93845,ErSi2,-0.44663,0.0,na,0.0883,,,,,
JVASP-105947,ZrTaC2,-0.85441,0.0,na,0.0,,,,,
JVASP-99429,NdDyZn2,-0.36283,0.0,na,0.0071,,,,,
JVASP-3216,NaZnAs,-0.44891,0.458,1.406,0.0,,,,,
JVASP-96812,SiH8C2NClO,-0.28671,4.817,na,0.3902,,,,,
JVASP-105877,UCd3,0.24102,0.0,0.0,0.2485,,,,,
JVASP-99993,DyYFe4,-0.13099,0.0,na,0.0008,,,,,
JVASP-93407,RbMnSb,-0.09922,0.0,na,0.2388,,,,,
JVASP-95297,TbZnSn2,-0.47346,0.0,na,0.0031,,,,,
JVASP-99753,Yb3Ba,0.03909,0.0,na,0.0391,,,,,
JVASP-108162,Al2ZnSe2S2,-0.98088,1.814,2.816,0.0515,,,,,
JVASP-96748,BaCrO4,-2.6019,2.753,na,0.0184,,,,,
JVASP-99569,NiIr3,0.00614,0.0,0.0,0.0061,,,,,
JVASP-93700,CoReO4,-1.48226,0.0,na,0.0002,,,,,
JVASP-99528,Na2GaHgF6,-2.23886,0.0,1.263,0.247,,,,,
JVASP-92774,Lu3InN,-1.10886,0.0,na,0.0,,,,,
JVASP-99008,RbEuS2,-2.03012,2.285,3.404,0.0,,,,,
JVASP-52825,RbHSeO4,-1.1414,3.753,5.222,0.001,,,,,
JVASP-93351,Hf2Al,-0.25456,0.0,na,0.0455,,,,,
JVASP-94893,Ga2FeSe4,-0.43587,0.0,na,0.0704,,,,,
JVASP-94365,Sr2Mg,0.04943,0.0,na,0.1298,,,,,
JVASP-15707,CeFe2P2,-1.00815,0.0,na,0.0,,,,,
JVASP-14820,Zn,0.0,0.0,na,0.0,,,,,
JVASP-95427,K4CO4,-1.51041,2.286,5.584,0.1821,,,,,
JVASP-93953,CrSbO4,-1.77437,0.0,na,0.0318,,,,,
JVASP-99479,K2CuSbCl6,-1.26678,0.841,na,0.0198,,,,,
JVASP-100047,MgZn2N2,-0.30781,0.46,na,0.0217,,,,,
JVASP-91375,Tl2SeO4,-0.87519,3.276,na,0.0,,,,,
JVASP-93801,Hg,0.24236,0.0,na,0.0,,,,,
JVASP-17353,AlCrO3,-1.49774,0.0,0.0,1.2117,,,,,
JVASP-93754,LuCuSn,-0.50868,0.0,na,0.0693,,,,,
JVASP-96631,Er2S2O,-2.84871,2.673,na,0.0045,,,,,
JVASP-106103,Cr3NiP4,-0.4873,0.0,0.0,0.0003,,,,,
JVASP-99703,K2LaAuCl6,-1.69199,2.133,na,0.2073,,,,,
JVASP-92624,Tb2InNi2,-0.58203,0.0,na,0.0,,,,,
JVASP-106025,MnZnSe2,-0.48883,0.301,na,0.0447,,,,,
JVASP-92505,RbTlF3,-2.2725,0.0,na,0.0592,,,,,
JVASP-93532,CaMg,0.02474,0.0,na,0.1409,,,,,
JVASP-93248,Ni4O,-0.08618,0.0,na,0.2188,,,,,
JVASP-54949,Co2Sn,0.16339,0.0,0.0,0.232,,,,,
JVASP-99896,ZrAlNi2,-0.52076,0.0,na,0.1155,,,,,
JVASP-92538,Ca2CdPd2,-0.73023,0.0,na,0.0,,,,,
JVASP-99362,LiAlSiH2O5,-1.73741,1.922,na,0.6595,,,,,
JVASP-99381,Rb2NdAgBr6,-1.57769,3.182,na,0.0355,,,,,
JVASP-99848,TbHf,0.15883,0.0,na,0.1588,,,,,
JVASP-91309,Y3Co8Sn4,-0.31262,0.0,na,0.0327,,,,,
JVASP-94310,Pr2GeRh3,-0.77916,0.0,na,0.0,,,,,
JVASP-51105,HfMoSe,0.58073,0.0,na,1.3902,,,,,
JVASP-94950,Pb3N4,0.64916,0.0,na,0.658,,,,,
JVASP-96882,Na2Cr2O7,-2.0013,2.347,na,0.0161,,,,,
JVASP-94406,Mg5Sb,-0.04019,0.0,na,0.1394,,,,,
JVASP-99941,Pr2Ga7Ni,-0.54519,0.0,na,0.0032,,,,,
JVASP-92676,Pr2Os3,0.26588,0.0,na,0.3946,,,,,
JVASP-99570,PmEr3,0.01098,0.0,na,0.0146,,,,,
JVASP-92717,NdSi3Ir,-0.74965,0.0,na,0.0,,,,,
JVASP-106179,CrIrO4,-1.51487,0.0,na,0.0152,,,,,
JVASP-99128,Ba2ZnSi2O7,-2.91656,4.29,na,0.0,,,,,
JVASP-107964,Nd3Tm,0.01326,0.0,na,0.0133,,,,,
JVASP-95591,KHI2F12,-1.83522,4.564,na,0.0,,,,,
JVASP-97008,NbO2,-2.24396,0.243,na,0.3772,,,,,
JVASP-93470,TaS2,-1.12701,0.0,na,0.019,,,,,
JVASP-99529,Sr2CuS2Cl2,-1.78168,0.0,na,0.0946,,,,,
JVASP-93847,UPb2,0.13155,0.0,na,0.1316,,,,,
JVASP-99994,FeCo3,0.12639,0.0,na,0.1489,,,,,
JVASP-99754,Ca2InPb,-0.56506,0.0,na,0.0124,,,,,
JVASP-95299,SnHgO3,-1.11983,0.0,na,0.0557,,,,,
JVASP-94366,Sr2Mg,0.05135,0.0,na,0.1317,,,,,
JVASP-1813,KDyS2,-2.06458,2.339,3.401,0.0,,,,,
JVASP-1300,MgS,-1.62337,2.945,4.276,0.0215,,,,,
JVASP-108062,TiAlCo2,-0.56791,0.0,0.0,0.0683,,,,,
JVASP-99802,Li3Y,0.19388,0.0,na,0.1946,,,,,
JVASP-99481,Rb2TlCuF6,-2.28081,0.0,na,0.0133,,,,,
JVASP-94894,Sn2Rh3S2,-0.51425,0.0,na,0.0,,,,,
JVASP-105878,V3Fe,-0.16799,0.0,na,0.0247,,,,,
JVASP-96941,CaAlB3O7,-2.94202,5.38,7.322,0.0052,,,,,
JVASP-94848,Sr2TcO4,-2.5736,0.0,na,0.0,,,,,
JVASP-91451,MnCdF5,-2.38767,0.0,0.044,0.0496,,,,,
JVASP-99704,Rb2CuSbI6,-0.76389,0.07,na,0.0468,,,,,
JVASP-100048,BaZn2N2,-0.28199,0.823,na,0.1228,,,,,
JVASP-99430,PaSb3,-0.31061,0.0,na,0.0914,,,,,
JVASP-96816,NaNdH2S2O9,-1.92463,6.082,na,0.0024,,,,,
JVASP-15401,YCu2Ge2,-0.50617,0.0,na,0.0,,,,,
JVASP-100120,Rb2AlInF6,-3.09582,4.331,na,0.0,,,,,
JVASP-105948,ZrNbB2,-0.70497,0.0,na,0.0533,,,,,
JVASP-14821,Sb,0.30369,0.0,0.0,0.0,,,,,
JVASP-15118,Li2GaRh,-0.50689,0.0,na,0.0,,,,,
JVASP-15656,SmTiGe,-0.6534,0.0,na,0.0,,,,,
JVASP-99382,KRb2InI6,-1.06961,1.272,2.145,0.0675,,,,,
JVASP-99363,Li3ScB2O6,-2.79572,4.662,na,0.0014,,,,,
JVASP-49795,Al2O3,-3.20812,4.396,6.212,0.1052,,,,,
JVASP-1225,Bi2O3,-1.36383,2.189,3.398,0.0,,,,,
JVASP-48293,LiFeSiO4,-2.17059,1.418,na,0.1313,,,,,
JVASP-14865,ErTl,-0.32131,0.0,na,0.0028,,,,,
JVASP-96750,NaCoPO4,-1.90836,0.198,na,0.0331,,,,,
JVASP-96632,Tm2S2O,-2.85266,2.714,na,0.0067,,,,,
JVASP-93297,Li2CuO2,-1.55357,0.0,na,0.0163,,,,,
JVASP-92581,NdSi3Ru,-0.622,0.0,na,0.0,,,,,
JVASP-100161,CeP3,-0.69883,0.0,na,0.1196,,,,,
JVASP-99898,Zr4FeNi,-0.2654,0.0,na,0.0188,,,,,
JVASP-94312,LaScGe,-0.74851,0.0,na,0.0138,,,,,
JVASP-108163,Al2CoNi,-0.63903,0.0,0.0,0.0018,,,,,
JVASP-12066,BiO2,-0.64593,0.0,na,0.5135,,,,,
JVASP-95103,CaB2H8,-0.3788,5.545,na,0.0116,,,,,
JVASP-93533,Mg5Cd,-0.02286,0.0,na,0.0308,,,,,
JVASP-99943,NdAl2Pt3,-1.10497,0.0,na,0.0037,,,,,
JVASP-3510,BiI3,-0.46095,2.365,2.941,0.0124,,,,,
JVASP-99571,PmMg2,-0.09131,0.0,na,0.0315,,,,,
JVASP-99659,HfNbB2,-0.73527,0.0,0.0,0.0222,,,,,
JVASP-94407,Mg2Sb,-0.07445,0.0,na,0.2847,,,,,
JVASP-14942,PrRh2,-0.66926,0.0,na,0.0,,,,,
JVASP-93352,TaV2,-0.10018,0.0,na,0.0,,,,,
JVASP-99431,Pm3Sm,0.00795,0.0,na,0.0113,,,,,
JVASP-95270,MgAlBO4,-3.0269,6.57,8.197,0.0,,,,,
JVASP-50593,TaTlO3,-2.45366,0.482,1.029,0.0,,,,,
JVASP-93702,SrPuO4,-3.0807,0.0,na,0.0,,,,,
JVASP-93897,HfCuGe,-0.4885,0.0,na,0.0,,,,,
JVASP-99009,EuS,-2.18183,0.0,1.563,0.0,,,,,
JVASP-93803,HgO,-0.22413,1.308,na,0.021,,,,,
JVASP-99803,LiAc2Sn,-0.36798,0.0,na,0.03,,,,,
JVASP-99705,K2AlAuCl6,-1.42358,0.54,na,0.0892,,,,,
JVASP-105879,Y2AgHg,-0.40903,0.0,na,0.0044,,,,,
JVASP-99482,Rb2InCuF6,-2.49707,0.0,na,0.0,,,,,
JVASP-19908,PrIr2,-0.73798,0.0,0.0,0.0,,,,,
JVASP-100121,Rb2InSbF6,-2.48114,1.869,na,0.06,,,,,
JVASP-93954,MnO2,-1.80492,0.157,na,0.0,,,,,
JVASP-100051,Si2TeN2,-0.57793,1.25,na,0.2573,,,,,
JVASP-19874,VPd3,-0.24195,0.0,0.0,0.0,,,,,
JVASP-99849,TbRh2Pb,-0.55036,0.0,na,0.0327,,,,,
JVASP-13768,CeGe2,-0.56744,0.0,0.0,0.0,,,,,
JVASP-99132,RbSiBiS4,-0.8901,2.102,na,0.0,,,,,
JVASP-105727,BeRu3,0.10416,0.0,0.0,0.2391,,,,,
JVASP-93755,DyCuSn,-0.57606,0.0,na,0.0482,,,,,
JVASP-106104,Cr3GaFe3As2,0.02937,0.0,na,0.1537,,,,,
JVASP-95431,Na2UO4,-2.82325,1.976,2.034,0.0,,,,,
JVASP-96820,La2CoO4,-2.86659,0.0,na,0.097,,,,,
JVASP-93408,Sm2O,-1.99734,0.0,na,0.0425,,,,,
JVASP-94849,Tl2Rh3S2,-0.33038,0.0,na,0.0,,,,,
JVASP-91311,Tb4CoB13,-0.48054,0.0,na,0.0,,,,,
JVASP-99530,KMnF3,-2.70488,1.584,2.057,0.014,,,,,
JVASP-48530,Li7VO5F,-2.35363,0.089,0.0,0.0861,,,,,
JVASP-28452,WS2,-0.86918,0.825,1.638,0.1265,,,,,
JVASP-3222,PrZnPO,-1.92765,1.152,na,0.0,,,,,
JVASP-16057,LiPrGe,-0.71378,0.024,na,0.0,,,,,
JVASP-94313,CeNiSn,-0.55758,0.0,na,0.0813,,,,,
JVASP-108165,AgAu,-0.05813,0.0,0.0,0.0022,,,,,
JVASP-95306,Ba2SrUO6,-3.34616,2.361,na,0.0,,,,,
JVASP-93534,Ce2Mg,0.68143,0.0,na,0.7044,,,,,
JVASP-106180,CrO3,-1.64956,1.588,2.124,0.0561,,,,,
JVASP-96633,Rb2Sn2Se5,-0.76879,0.823,na,0.0,,,,,
JVASP-94953,SnB6,0.15849,0.794,na,0.1585,,,,,
JVASP-93249,Nd3SnN,-1.03782,0.0,na,0.0,,,,,
JVASP-21535,CaTe2O5,-1.77478,3.293,na,0.0,,,,,
JVASP-106027,MnAl2Cu,-0.21734,0.0,0.0,0.0138,,,,,
JVASP-97010,Na3SrB5O10,-2.59851,4.829,na,0.0106,,,,,
JVASP-99944,NbVCN,-0.78417,0.0,na,0.1452,,,,,
JVASP-99572,Tb3Dy,0.0116,0.0,na,0.0152,,,,,
JVASP-91378,CaLu2O4,-3.74133,3.932,na,0.0245,,,,,
JVASP-28410,WSe2,-0.46596,1.334,1.587,0.0787,,,,,
JVASP-99434,TmF3,-4.04985,6.372,na,0.0214,,,,,
JVASP-92719,Ti2H2Pd,-0.48165,0.0,na,0.0409,,,,,
JVASP-92677,SmSi3Rh,-0.72504,0.0,na,0.0,,,,,
JVASP-93301,ZnFe2N2,0.36611,0.0,na,0.6047,,,,,
JVASP-3441,MnGa2Se4,-0.52956,0.721,na,0.0012,,,,,
JVASP-99899,Zr3Se4,-1.35027,0.0,na,0.0762,,,,,
JVASP-92775,LuFe2B2,-0.50527,0.0,na,0.0,,,,,
JVASP-99755,Ca,0.00456,0.0,na,0.0,,,,,
JVASP-99613,Sr2Zn3Cd,-0.33601,0.0,0.0,0.0093,,,,,
JVASP-94367,Sr5Mg,0.0275,0.0,na,0.0677,,,,,
JVASP-52302,LiAg2F4,-1.64629,0.0,0.0,0.0958,,,,,
JVASP-99995,EuPPt,-1.37749,0.0,0.0,0.0,,,,,
JVASP-105949,ZnSnAs2,-0.17504,0.0,0.565,0.0039,,,,,
JVASP-93473,ThUO4,-3.81574,0.0,na,0.0617,,,,,
JVASP-92625,Lu2InNi2,-0.61331,0.0,na,0.0,,,,,
JVASP-96942,SiO2,-2.6406,4.71,na,0.2607,,,,,
JVASP-15059,Ta2Si,-0.45934,0.0,0.0,0.0021,,,,,
JVASP-99706,K2NdAgF6,-2.95654,2.282,na,0.1623,,,,,
JVASP-48342,Mn3OF5,-2.30347,0.0,na,0.0,,,,,
JVASP-18555,Y2B3C2,-0.61067,0.0,na,0.0,,,,,
JVASP-42677,Li5Fe5Co2O12,-1.56377,0.0,na,0.109,,,,,
JVASP-100122,K2RbNdBr6,-1.76605,3.783,na,0.1491,,,,,
JVASP-93848,PuB2Os3,-0.1446,0.0,na,0.1658,,,,,
JVASP-95115,Tl10Hg3Cl16,-0.8903,2.384,na,0.0012,,,,,
JVASP-92539,FeB2W2,-0.39193,0.0,na,0.1631,,,,,
JVASP-99364,LaCo9Si4,-0.43701,0.0,na,0.0,,,,,
JVASP-1816,KHoS2,-2.06625,2.356,3.298,0.0,,,,,
JVASP-94895,TiCr2S4,-1.00516,0.0,na,0.0041,,,,,
JVASP-4059,SmBrO,-3.08097,4.411,6.145,0.0,,,,,
JVASP-105881,Y2MgHg,-0.24423,0.0,na,0.0279,,,,,
JVASP-93955,CuO2,-0.25868,0.0,na,0.2333,,,,,
JVASP-100162,DyHo3,0.00959,0.0,na,0.0147,,,,,
JVASP-94408,LiMg5,-0.03256,0.0,na,0.0088,,,,,
JVASP-95595,P3H11N4O9,-1.10056,5.08,na,0.0707,,,,,
JVASP-107966,Pd,0.0073,0.0,0.0,0.0,,,,,
JVASP-96754,MnTe2O5,-1.22107,0.715,na,0.0846,,,,,
JVASP-1918,HgI,-0.0932,1.476,2.067,0.0229,,,,,
JVASP-91452,TlCO2,-1.11922,2.762,3.35,0.0273,,,,,
JVASP-99850,ThAgHg2,-0.10298,0.0,na,0.0173,,,,,
JVASP-94850,Na5Sn2,-0.23535,0.0,na,0.0097,,,,,
JVASP-18522,Ba3PbO,-1.51134,0.0,na,0.0,,,,,
JVASP-93898,YbTe2,-1.0457,0.0,na,0.1239,,,,,
JVASP-106105,CeUN2,-1.61571,0.0,0.0,0.0017,,,,,
JVASP-341,WO2,-0.31626,0.0,0.0,1.8918,,,,,
JVASP-99483,KLaCu2O4,-1.84709,0.0,na,0.006,,,,,
JVASP-95271,Cr5S8,-0.75214,0.0,na,0.0178,,,,,
JVASP-93804,SmCuSn,-0.5954,0.0,na,0.0271,,,,,
JVASP-91312,Pb3SO6,-1.39272,2.802,na,0.0476,,,,,
JVASP-105729,CaCd3,-0.3243,0.0,na,0.0,,,,,
JVASP-96823,USeO6,-1.87078,2.255,na,0.0321,,,,,
JVASP-99011,Sc3P2,-1.33607,0.0,na,0.0192,,,,,
JVASP-105950,Zr2VCo3,-0.36956,0.0,0.0,0.0,,,,,
JVASP-99945,Nb6PdRh,-0.19439,0.0,na,0.0226,,,,,
JVASP-16102,SmRhC2,-0.37582,0.0,0.0,0.0133,,,,,
JVASP-43846,MnP2WO8,-2.02991,0.0,na,0.0966,,,,,
JVASP-99660,CeY2Al3Pd3,-0.87614,0.0,0.0,0.0243,,,,,
JVASP-99365,BiRhO3,-1.12202,0.415,na,0.045,,,,,
JVASP-320,TiS2,-1.39503,0.0,na,0.0324,,,,,
JVASP-99383,CaMg2,-0.14034,0.0,0.0,0.0015,,,,,
JVASP-99714,Rb2TaAgBr6,-1.05881,0.0,na,0.0823,,,,,
JVASP-15749,DyAl2Si2,-0.40158,0.0,na,0.0,,,,,
JVASP-94368,SrMg,0.07994,0.0,na,0.2004,,,,,
JVASP-16058,YbLiGe,-0.55258,0.0,na,0.0419,,,,,
JVASP-92582,TbCoSi3,-0.60347,0.0,na,0.0017,,,,,
JVASP-95309,Li2Ca2Ta3O10,-3.02679,0.0,na,0.0516,,,,,
JVASP-100123,Rb2LiScCl6,-2.17735,3.689,na,0.0,,,,,
JVASP-18589,Li2AgSn,-0.333,0.0,na,0.0516,,,,,
JVASP-99804,YbLi3,0.08264,0.0,na,0.0833,,,,,
JVASP-14568,SmAg,-0.32443,0.0,0.0,0.0,,,,,
JVASP-96885,Mg2BO3F,-3.09457,4.9,6.821,0.0,,,,,
JVASP-93849,DyNi4Au,-0.43378,0.0,na,0.0003,,,,,
JVASP-15013,VPt,-0.55308,0.0,0.0,0.0003,,,,,
JVASP-95437,Ba2CoF6,-3.31729,0.0,na,0.0073,,,,,
JVASP-3225,NaSrP,-0.93476,1.413,1.99,0.0,,,,,
JVASP-93703,NbVO4,-2.61269,0.0,na,0.0308,,,,,
JVASP-15045,YbSn3,-0.47384,0.0,na,0.0,,,,,
JVASP-1867,FeAgO2,-1.00313,0.0,0.0,0.0622,,,,,
JVASP-100052,BaSnN2,-0.32978,0.0,1.287,0.179,,,,,
JVASP-99484,RbZrCu3Se4,-0.61389,1.055,na,0.1698,,,,,
JVASP-14649,NpCo2,-0.20648,0.0,0.0,0.0,,,,,
JVASP-94314,CO2,-1.30576,6.677,na,0.0121,,,,,
JVASP-93353,Mn2As,0.02406,0.0,na,0.1611,,,,,
JVASP-93756,CdB2,2.45313,0.0,na,2.4564,,,,,
JVASP-99852,Y2CdHg,-0.40624,0.0,na,0.0094,,,,,
JVASP-93549,PbClF,-1.92432,3.812,na,0.0151,,,,,
JVASP-105882,YRh2Pb,-0.55992,0.0,na,0.0296,,,,,
JVASP-100211,MnHg3,0.54676,0.0,0.0,0.5468,,,,,
JVASP-92626,Er2AlNi2,-0.62501,0.0,na,0.0062,,,,,
JVASP-100163,Ce3Cu,0.08639,0.0,na,0.1545,,,,,
JVASP-99756,Ca3Nd,0.08016,0.0,0.0,0.0927,,,,,
JVASP-93303,IrO2,-0.63922,0.0,na,0.3097,,,,,
JVASP-94954,SrEr2O4,-3.19403,2.892,na,0.4489,,,,,
JVASP-16197,NbCrSi,-0.42153,0.0,0.0,0.0288,,,,,
JVASP-92678,Rb2PdSe2,-0.96576,0.926,na,0.0,,,,,
JVASP-92720,CeSi3Rh,-0.73985,0.0,na,0.0,,,,,
JVASP-106183,NbCrO4,-2.41261,0.0,na,0.0783,,,,,
JVASP-99996,EuCo2SiGe,-0.69841,0.0,na,0.0,,,,,
JVASP-99143,K3SbTe3,-0.84703,1.633,2.385,0.0,,,,,
JVASP-99573,TmGa3,-0.47859,0.0,na,0.0166,,,,,
JVASP-99531,AcGaO3,-2.89519,3.071,5.117,0.0,,,,,
JVASP-99900,Zn2FeS3,-0.63642,0.0,na,0.1486,,,,,
JVASP-106028,MnAl2Cr3,-0.16863,0.0,0.0,0.0,,,,,
JVASP-52902,H2S,-0.0957,3.151,na,0.0425,,,,,
JVASP-94409,LiMg2,-0.01986,0.0,na,0.0628,,,,,
JVASP-93250,Ni4N,0.05707,0.0,na,0.0774,,,,,
JVASP-93475,BePO4,-2.16471,0.0,na,0.1402,,,,,
JVASP-99715,Rb2SbAuCl6,-1.19153,0.158,na,0.1065,,,,,
JVASP-50949,ErAlO3,-3.55895,3.972,na,0.0902,,,,,
JVASP-15496,MnSnRh2,-0.33916,0.0,na,0.0,,,,,
JVASP-99947,Nd2FeCo3Si4,-0.7107,0.0,na,0.0043,,,,,
JVASP-91313,DyInIr,-0.76223,0.0,na,0.0,,,,,
JVASP-1921,RbBr,-1.86597,4.436,6.932,0.0,,,,,