jid,formula,formation_energy_per_atom,optb88vdw_bandgap,mbj_bandgap,ehull,spacegroup_number,natoms,volume,bulk_modulus_kv,shear_modulus_gv
JVASP-75601,AsWBr,1.63062,0.0,0.0,2.008,,,,,
JVASP-75635,HfMoAs,0.58384,0.0,na,1.2549,,,,,
JVASP-74048,ScBeV2,0.0869,0.0,na,0.1628,,,,,
JVASP-86963,Fe3S4,-0.4008,0.0,na,0.2036,,,,,
JVASP-67693,Be2SnGe,0.67802,0.0,na,0.678,,,,,
JVASP-15311,SmCo2B2,-0.55192,0.0,0.0,0.0,,,,,
JVASP-69475,MnBe2V,-0.02716,0.0,0.0,0.21,,,,,
JVASP-53954,HCN,0.30048,6.526,7.722,0.434,,,,,
JVASP-42276,Li2MnSiO4,-2.38978,2.199,na,0.0201,,,,,
JVASP-44461,VBiO3,-1.9051,0.0,na,0.1474,,,,,
JVASP-52898,HPbIO,-0.99413,2.857,na,0.0,,,,,
JVASP-86828,Ca3B6Rh8,-0.64028,0.0,na,0.0,,,,,
JVASP-44000,LiMnF3,-2.69403,2.392,na,0.0233,,,,,
JVASP-76199,Rb3Os,1.26404,0.0,0.0,1.2868,,,,,
JVASP-43334,LiNiPO4,-1.87258,0.351,na,0.1101,,,,,
JVASP-50815,Li5InO4,-1.92118,2.785,4.816,0.0851,,,,,
JVASP-69740,Be2PdSe,-0.02652,0.0,na,0.7188,,,,,
JVASP-96441,Na2LiB5P2O14,-2.48144,5.437,na,0.0,,,,,
JVASP-67731,ScBeTc2,-0.1172,0.0,0.0,0.1825,,,,,
JVASP-69657,Be2SiPt,-0.18193,0.0,na,0.3072,,,,,
JVASP-75677,Mn2AsSe,0.58651,0.0,na,0.8626,,,,,
JVASP-67896,KBeNi2,0.96696,0.0,na,1.2029,,,,,
JVASP-68531,KSrBe2,0.63688,0.0,na,0.6811,,,,,
JVASP-70577,ZrBeRh,-0.52933,0.0,na,0.1157,,,,,
JVASP-67951,BeNiPd2,-0.1261,0.0,0.0,0.2431,,,,,
JVASP-18663,UCuP2,-0.64871,0.0,na,0.0114,,,,,
JVASP-67850,NaBeMo,0.57707,0.0,0.0,0.7284,,,,,
JVASP-69941,Be2InSn,0.66468,0.0,0.0,0.666,,,,,
JVASP-67610,ZrBeW,-0.00743,0.0,na,0.2743,,,,,
JVASP-85702,SrAl2H2,-0.41455,0.0,0.0,0.0,,,,,
JVASP-92247,YbPrO2,-3.19769,0.0,na,0.085,,,,,
JVASP-88495,SrMnO3,-2.50847,0.58,na,0.015,,,,,
JVASP-70355,Be2GaSe,0.45688,0.0,na,0.922,,,,,
JVASP-67649,Be2InSn,0.6846,0.0,na,0.6859,,,,,
JVASP-70111,LaBe2Te,0.25978,0.0,na,1.0759,,,,,
JVASP-70731,Be2TlMo,0.73062,0.0,0.0,0.9515,,,,,
JVASP-75636,AsPt2W,-0.00243,0.0,na,0.5042,,,,,
JVASP-70430,LiBe2Ga,0.09976,0.0,na,0.2708,,,,,
JVASP-73967,Mn2BeGa,-0.0663,0.0,na,0.0729,,,,,
JVASP-69814,Be2PtSe,0.03307,0.0,na,0.6899,,,,,
JVASP-96634,BaMgSi,-0.45235,0.0,na,0.0,,,,,
JVASP-67811,ZrBe2Pd,-0.05278,0.0,0.0,0.4037,,,,,
JVASP-75717,ReAsAu,1.36494,0.0,0.0,1.3806,,,,,
JVASP-85775,K2CoH2Se2O10,-1.06911,0.622,na,0.0625,,,,,
JVASP-94128,HfMg6Co,0.16744,0.0,na,0.2817,,,,,
JVASP-68469,Be2CrCd,0.32195,0.0,0.0,0.4815,,,,,
JVASP-75602,ScCu2As,-0.30228,0.0,na,0.4208,,,,,
JVASP-74137,BeInRh2,-0.19115,0.0,0.0,0.2922,,,,,
JVASP-75858,Sc2FeAs,-0.21907,0.0,0.136,0.6666,,,,,
JVASP-70766,MnBeSe2,-0.06145,0.0,na,0.577,,,,,
JVASP-74049,ScBeW2,-0.19474,0.0,na,0.1464,,,,,
JVASP-70806,HfBeP,-0.66223,0.0,0.0,0.2499,,,,,
JVASP-70493,YBe2Cr,0.47058,0.0,na,0.6276,,,,,
JVASP-3198,ErAgTe2,-0.91149,0.897,1.281,0.0,,,,,
JVASP-75749,Ti2AsRh,-0.36783,0.0,na,0.4761,,,,,
JVASP-69479,Be2TlSb,0.68177,0.0,na,0.6879,,,,,
JVASP-70652,Be2BrCl,0.37238,0.0,na,1.3329,,,,,
JVASP-68834,Ca2BeBi,-0.07928,0.0,0.0,0.5718,,,,,
JVASP-91245,NbSeOF7,-2.42224,4.341,na,0.0,,,,,
JVASP-91839,EuCuSn2,-0.40826,0.0,na,0.9299,,,,,
JVASP-86556,BaBi4Cl2O6,-1.55726,0.0,na,0.1339,,,,,
JVASP-68763,Y2BeSn,-0.17164,0.0,0.0,0.362,,,,,
JVASP-68021,BeGaMo2,0.10574,0.0,0.0,0.2854,,,,,
JVASP-94817,TiNiO6,-0.85577,0.0,na,0.6831,,,,,
JVASP-70029,YBe2Nb,0.23908,0.0,na,0.4277,,,,,
JVASP-44268,Li4VTe3O12,-1.69075,0.041,1.39,0.0705,,,,,
JVASP-69566,Be2TcIr,-0.23008,0.0,0.0,0.1547,,,,,
JVASP-68217,Mg2BeFe,0.3271,0.0,0.0,0.4284,,,,,
JVASP-75828,Ga2CoAs,0.27276,0.0,na,0.5647,,,,,
JVASP-69658,Be2VPt,-0.33542,0.0,na,0.1741,,,,,
JVASP-68588,MgBe2Ru,-0.15034,0.0,0.0,0.1195,,,,,
JVASP-54639,MnGa2Co,-0.05319,0.0,na,0.1285,,,,,
JVASP-75718,AsPtSe,-0.10752,0.0,na,0.332,,,,,
JVASP-85845,LaIr2,-0.80415,0.0,na,0.0,,,,,
JVASP-70580,Be2TePt,0.01424,0.0,na,0.4783,,,,,
JVASP-42787,Li2MnP2O7,-2.2049,2.7,na,0.0974,,,,,
JVASP-67952,BeCuSe2,-0.19313,0.0,na,0.3392,,,,,
JVASP-70842,LiSc2Be,0.16846,0.0,0.0,0.2315,,,,,
JVASP-75678,CdAsIr,0.80768,0.0,0.0,1.0311,,,,,
JVASP-75785,TaAsIr2,0.03897,0.0,0.0,0.654,,,,,
JVASP-94073,KMg6V,0.31884,0.0,na,0.3199,,,,,
JVASP-85658,K2Si2Pb2O,-0.26128,0.0,na,0.4592,,,,,
JVASP-70947,BeIn4Tc,0.98742,0.0,na,1.0457,,,,,
JVASP-75859,ZnGaAs,0.13035,0.0,na,0.3534,,,,,
JVASP-74053,BeCdMo2,0.29435,0.0,na,0.4073,,,,,
JVASP-67812,BeGa4Se,0.43828,0.0,na,0.7484,,,,,
JVASP-94209,Mg6VCu,0.215,0.0,na,0.2652,,,,,
JVASP-69818,SrBeHg,-0.02763,0.0,na,0.3065,,,,,
JVASP-70112,BeGa4Pt,0.42617,0.0,na,0.7651,,,,,
JVASP-15536,LuSnAu,-0.83049,0.01,0.048,0.0,,,,,
JVASP-70286,Be2NiGe,-0.01789,0.0,na,0.2398,,,,,
JVASP-86718,Sm2C3N6,-0.87392,2.436,na,0.0,,,,,
JVASP-92927,Mg6BW,0.48252,0.0,na,0.6249,,,,,
JVASP-1339,K2Te,-1.10795,2.187,3.951,0.0,,,,,
JVASP-67776,NaBeTc2,0.29467,0.0,0.0,0.3798,,,,,
JVASP-67576,BeGaCu,0.1329,0.0,0.0,0.2385,,,,,
JVASP-67897,BeCrGe2,0.30169,0.0,na,0.3958,,,,,
JVASP-75719,TcAsCl,1.24337,0.0,na,1.6826,,,,,
JVASP-70732,NaBe2Cr,0.59757,0.0,na,0.7577,,,,,
JVASP-69742,Be2TlRe,0.76398,0.0,na,1.0328,,,,,
JVASP-3789,CaTiF6,-3.76364,4.613,4.989,0.0122,,,,,
JVASP-95772,EuHg2,-0.26838,0.0,na,0.0,,,,,
JVASP-70876,Sc2BeCl,-0.31115,0.0,0.0,0.5117,,,,,
JVASP-68165,BeRu2Pb,0.60441,0.0,na,0.7393,,,,,
JVASP-69882,Be2FeP,-0.17691,0.0,na,0.1551,,,,,
JVASP-69942,NaBe2Ge,0.5365,0.0,na,0.6346,,,,,
JVASP-87168,Na2ZrNiP4O14,-2.36796,1.169,na,0.0064,,,,,
JVASP-15601,HoCr2Si2,-0.38484,0.0,0.0,0.0997,,,,,
JVASP-91601,DyIn2Ni,-0.44435,0.0,na,0.0,,,,,
JVASP-90765,HfMg,2.08077,0.0,na,2.0808,,,,,
JVASP-70208,TiBe2Ni,-0.10597,0.0,0.0,0.2488,,,,,
JVASP-91322,Na2CaV4O12,-2.61378,2.687,na,0.0,,,,,
JVASP-70357,NaMgBe2,0.62683,0.0,na,0.6381,,,,,
JVASP-3297,K3Ag3As2,-0.41178,1.186,1.744,0.0,,,,,
JVASP-86777,K2WCl6,-1.50164,0.0,na,0.0,,,,,
JVASP-75637,ZrAsP,-0.26745,0.0,na,0.6997,,,,,
JVASP-67851,BeNb2Cu,0.23778,0.0,0.0,0.3321,,,,,
JVASP-88112,B2Se2O7,-1.53571,3.885,na,0.0169,,,,,
JVASP-91518,LiOsF6,-2.21128,1.088,na,0.0,,,,,
JVASP-68589,LiBe2Pd,-0.18851,0.0,na,0.1714,,,,,
JVASP-90623,BaCdAsF,-1.96031,0.887,1.719,0.0,,,,,
JVASP-93105,CeMg6Sb,-0.09576,0.0,na,0.1727,,,,,
JVASP-86895,SmZnSn,-0.65457,0.0,na,0.0,,,,,
JVASP-91558,CaFeO2,-2.24845,0.0,na,0.0109,,,,,
JVASP-87096,Rb2MnSe2,-0.96495,1.021,na,0.0,,,,,
JVASP-94746,Mg6AlCd,-0.0206,0.0,na,0.0344,,,,,
JVASP-91936,NaTeO6,-0.06986,0.0,na,0.8611,,,,,
JVASP-70499,SrBe2Cd,0.45928,0.0,na,0.6908,,,,,
JVASP-70653,Be2BiRu,0.52736,0.0,na,0.7972,,,,,
JVASP-75722,ZrBe2As,0.3287,0.0,na,0.9243,,,,,
JVASP-90167,ThAlNi,-0.63547,0.0,na,0.0,,,,,
JVASP-68471,LiBe2Ge,0.47643,0.0,na,0.6368,,,,,
JVASP-43815,Fe2O2F3,-1.75651,0.0,0.0,0.1114,,,,,
JVASP-75603,YMnAs,-0.25183,0.0,na,0.8439,,,,,
JVASP-75750,Ni2HgAs,0.47596,0.0,0.0,0.6052,,,,,
JVASP-70034,Be2SiMo,-0.26909,0.0,na,0.0,,,,,
JVASP-70843,YBeZn2,-0.00629,0.0,na,0.3043,,,,,
JVASP-89900,UGaCo,-0.34722,0.0,na,0.0,,,,,
JVASP-48124,Li2VO2F,-2.61195,0.0,0.0,0.1219,,,,,
JVASP-92254,LiVF6,-2.92752,3.016,na,0.0187,,,,,
JVASP-68218,KBeW2,1.24385,0.0,na,1.561,,,,,
JVASP-85919,KCBrN2O4,-0.43159,2.017,2.425,0.5447,,,,,
JVASP-70114,BeSi2Ru2,0.05344,0.0,0.0,0.5082,,,,,
JVASP-67611,CaBeFe2,0.50764,0.0,na,0.6141,,,,,
JVASP-68082,Mg2BeCo,0.19347,0.0,0.0,0.3515,,,,,
JVASP-67813,Mg2BeHg,0.25372,0.0,na,0.3804,,,,,
JVASP-71022,Be2CrPt,-0.20118,0.0,na,0.1618,,,,,
JVASP-70949,BeCu4Ge,0.26067,0.0,na,0.2971,,,,,
JVASP-22728,Ca2SnS4,-1.52159,0.944,2.102,0.0282,,,,,
JVASP-48498,Co3O2F4,-1.57383,0.0,na,0.0182,,,,,
JVASP-70288,Be2CoSe,0.24629,0.0,na,0.8695,,,,,
JVASP-69744,ZrBe2Cd,0.10482,0.0,na,0.299,,,,,
JVASP-86273,Tb2InGe2,-0.72356,0.0,na,0.0149,,,,,
JVASP-68353,CaBeSb2,-0.01249,0.0,na,0.492,,,,,
JVASP-88330,BH2OF3,-2.14112,8.097,11.885,0.0,,,,,
JVASP-68836,Be2ZnSb,0.58743,0.0,na,0.6084,,,,,
JVASP-53963,ScO,-3.1679,0.0,na,0.0111,,,,,
JVASP-70911,ScTaBe2,-0.00418,0.0,0.0,0.1893,,,,,
JVASP-3420,InAgS2,-0.4583,0.293,1.615,0.0,,,,,
JVASP-70431,LiTaBe2,0.24849,0.0,na,0.4422,,,,,
JVASP-75829,BeSnAs,0.31817,0.0,na,0.4538,,,,,
JVASP-92193,RbYMg6,0.10802,0.0,na,0.1563,,,,,
JVASP-68281,BeCuNi2,-0.10337,0.0,na,0.1327,,,,,
JVASP-70358,YBe2Cr,0.61535,0.0,na,0.7724,,,,,
JVASP-70212,LiBe2P,0.12476,0.0,na,0.6527,,,,,
JVASP-86321,KN3,-0.22303,4.393,na,0.0,,,,,
JVASP-69820,Be2GaPb,0.72,0.0,na,0.72,,,,,
JVASP-67732,BeCrRu2,-0.00644,0.0,0.0,0.1285,,,,,
JVASP-68023,BeMoRh2,-0.15051,0.0,na,0.2541,,,,,
JVASP-3603,NdClO,-3.25355,4.721,5.956,0.0,,,,,
JVASP-67852,CaYBe2,0.17902,0.0,na,0.2499,,,,,
JVASP-53515,Mn2SbTe,0.29856,0.0,na,0.369,,,,,
JVASP-71058,CaBe2Cl,-0.27583,0.0,na,0.7417,,,,,
JVASP-70877,Mn2BeBi,0.46229,0.0,0.0,0.5505,,,,,
JVASP-67650,NaBeGa,0.2922,0.0,0.0,0.3607,,,,,
JVASP-70807,CaBeMo2,0.28059,0.0,na,0.3952,,,,,
JVASP-42277,Li2FeF4,-2.64756,0.277,na,0.0393,,,,,
JVASP-52357,Li5SbS,-0.96573,1.014,na,0.0809,,,,,
JVASP-93173,RbLiMg6,0.1525,0.0,na,0.1873,,,,,
JVASP-86091,Er3CoSi3,-0.77629,0.0,na,0.0009,,,,,
JVASP-48722,Li5FeO3F,-2.04684,0.01,na,0.1303,,,,,
JVASP-90710,TbTe3,-0.95474,0.0,na,0.0,,,,,
JVASP-43581,Li2FeB2O6,-2.14037,0.086,na,0.1251,,,,,
JVASP-91789,YAgSb2,-0.6321,0.0,na,0.0,,,,,
JVASP-88802,RePCl9,-0.61315,0.817,na,0.0,,,,,
JVASP-70500,Be2MoOs,0.00285,0.0,na,0.2238,,,,,
JVASP-68766,Y2BeBi,-0.17436,0.0,na,0.3374,,,,,
JVASP-69943,Be2CuPt,-0.29723,0.0,na,0.1508,,,,,
JVASP-70767,LiBeZn2,0.04159,0.0,na,0.1986,,,,,
JVASP-70844,SrBe2Sn,0.46026,0.0,na,0.8388,,,,,
JVASP-92888,Mg6NbC,0.59547,0.0,na,0.731,,,,,
JVASP-50357,RbNbO3,-2.59965,2.876,na,0.006,,,,,
JVASP-86348,Nd2Fe17,0.05781,0.0,na,0.0611,,,,,
JVASP-42636,LiScVO4,-2.91818,0.0,0.0,0.0874,,,,,
JVASP-86009,Ba2CoMoO6,-2.43878,0.0,na,0.0164,,,,,
JVASP-85528,Li2EuGeS4,-1.28618,0.0,na,0.094,,,,,
JVASP-70987,SrCaBe2,0.4127,0.0,na,0.4881,,,,,
JVASP-75860,NaCu2As,0.104,0.0,na,0.3307,,,,,
JVASP-70581,YMgBe2,0.06309,0.0,na,0.1156,,,,,
JVASP-86964,LaOF,-4.10312,4.799,na,0.0278,,,,,
JVASP-69659,Be2VIn,0.20286,0.0,0.0,0.3559,,,,,
JVASP-68837,KBe2Pt,0.09556,0.0,na,0.459,,,,,
JVASP-48257,Li8Co5O10,-1.59596,0.0,0.0,0.1297,,,,,
JVASP-70289,BeIr4Pt,0.66548,0.0,na,0.9,,,,,
JVASP-85703,EuH3Pd,-0.46623,0.0,na,0.0,,,,,
JVASP-86496,YSi2Ni2,-0.83297,0.0,na,0.0,,,,,
JVASP-91652,EuTl3,-0.22753,0.0,na,0.0,,,,,
JVASP-70951,HfBeSe2,-0.48791,0.0,na,0.6137,,,,,
JVASP-15353,UGe2Pd2,-0.41437,0.0,0.0,0.0184,,,,,
JVASP-67694,MgBePb,0.41537,0.0,na,0.4766,,,,,
JVASP-15440,ErTiGe,-0.70464,0.0,na,0.0,,,,,
JVASP-86431,Sm2Cr2Fe15,0.0019,0.0,na,0.0212,,,,,
JVASP-71129,Li4BeSn,0.12486,0.0,na,0.44,,,,,
JVASP-75679,VMo2As,0.13817,0.0,0.0,0.3737,,,,,
JVASP-91391,LiFeSi2O6,-2.39399,0.0,na,0.0878,,,,,
JVASP-69747,BeZn2Pd2,-0.04802,0.0,na,0.4254,,,,,
JVASP-70733,YZrBe2,0.04158,0.0,na,0.1857,,,,,
JVASP-67898,Li2BeCo,0.0293,0.0,na,0.1878,,,,,
JVASP-70432,Be2NiPd,-0.30536,0.0,0.0,0.2085,,,,,
JVASP-22714,RbCrO2,-1.56216,0.0,na,0.3228,,,,,
JVASP-70654,ScBe2Re,0.10309,0.0,na,0.372,,,,,
JVASP-96645,Sr2CdWO6,-2.65489,3.112,na,0.0,,,,,
JVASP-85433,CaFeClO2,-1.89094,0.0,0.0,0.2591,,,,,
JVASP-86673,Er5Ni2Te2,-0.85777,0.0,na,0.0,,,,,
JVASP-75863,MgAsW,1.11243,0.0,na,1.6934,,,,,
JVASP-74139,BeCr2Co,0.00712,0.0,0.0,0.1652,,,,,
JVASP-75787,TcAsPd2,0.03347,0.0,na,0.2737,,,,,
JVASP-69883,MnBe2Cd,0.30515,0.0,na,0.484,,,,,
JVASP-70359,ZrBe2Fe,-0.07936,0.0,na,0.1828,,,,,
JVASP-94819,SrCeN2,-1.36477,1.021,na,0.0408,,,,,
JVASP-96452,PrTaO4,-3.41986,3.576,na,0.0,,,,,
JVASP-94211,HfMg6Fe,0.18565,0.0,na,0.2594,,,,,
JVASP-94129,Mg6CoW,0.27394,0.0,na,0.3623,,,,,
JVASP-69944,Be2InPd,-0.04703,0.0,na,0.2936,,,,,
JVASP-94078,Mg6TiV,0.20415,0.0,na,0.2042,,,,,
JVASP-48916,LiMnOF2,-2.43976,0.637,na,0.0,,,,,
JVASP-43339,TiMnP2O8,-2.41005,0.48,na,0.0,,,,,
JVASP-50816,NbOF3,-2.9747,3.779,na,0.0041,,,,,
JVASP-69568,MgBe2Tc,0.14392,0.0,0.0,0.3082,,,,,
JVASP-69482,BeGa2Pd2,-0.05626,0.0,0.0,0.4571,,,,,
JVASP-70808,BeCdTc2,0.07407,0.0,na,0.1587,,,,,
JVASP-70878,BeRe2Cl,0.19045,0.0,na,0.8173,,,,,
JVASP-67954,BeV2Os,-0.09024,0.0,0.0,0.2057,,,,,
JVASP-70989,CaBeGe,-0.4915,0.0,0.0,0.0195,,,,,
JVASP-75723,TiMo2As,-0.00683,0.0,na,0.4619,,,,,
JVASP-70504,SrMgBe,0.25907,0.0,na,0.3674,,,,,
JVASP-75788,NbGaAs,0.60226,0.0,na,1.0745,,,,,
JVASP-75751,TiAsOs2,0.22212,0.0,na,0.6909,,,,,
JVASP-86148,DyFe2B2,-0.49345,0.0,0.0,0.0,,,,,
JVASP-44008,Ni3OF5,-1.56941,0.004,0.0,0.0489,,,,,
JVASP-90808,Be2BO5,-1.84959,0.0,0.0,0.4611,,,,,
JVASP-70768,LiBeP2,0.09167,0.0,na,0.6196,,,,,
JVASP-75831,SbAsRh,-0.23049,0.0,na,0.215,,,,,
JVASP-75604,Zn2AsRh,0.01653,0.0,na,0.3576,,,,,
JVASP-12153,YCBr,-1.21922,0.0,na,0.0,,,,,
JVASP-86557,CuBi2O4,-1.08776,0.0,na,0.0978,,,,,
JVASP-71092,Sc2BeRh,-0.40992,0.0,0.0,0.1883,,,,,
JVASP-90852,AlPt3,-0.70061,0.0,0.0,0.0,,,,,
JVASP-75638,ScAsRu2,-0.06159,0.0,na,0.6615,,,,,
JVASP-67613,Na2BeCo,0.74471,0.0,0.0,0.9088,,,,,
JVASP-91742,BaMg4Ge3,-0.47451,0.0,0.0,0.0,,,,,
JVASP-48441,NaMn2O4,-1.85956,0.0,na,0.0348,,,,,
JVASP-51455,TiGaFe2,-0.39309,0.0,0.0,0.0,,,,,
JVASP-70115,HfBeCu,-0.12177,0.0,0.0,0.0834,,,,,
JVASP-44274,Mn6O7F5,-1.98787,0.0,na,0.0,,,,,
JVASP-4846,PtN,1.215,0.0,0.0,1.2228,,,,,
JVASP-52899,H2O,-0.98029,5.594,7.423,0.0154,,,,,
JVASP-86830,SiPd2,-0.16873,0.0,na,0.4377,,,,,
JVASP-85356,Pt3O4,0.49491,0.0,na,1.0726,,,,,
JVASP-67733,LiBeGe,0.17732,0.0,na,0.3912,,,,,
JVASP-76200,Rb3Pt,0.0662,0.0,0.575,0.1063,,,,,
JVASP-71059,Be2SnSb,0.73056,0.0,na,0.7358,,,,,
JVASP-68168,BeZn2Sn,0.37168,0.0,na,0.3717,,,,,
JVASP-105611,KRb2ScI6,-1.41422,2.289,na,0.0114,,,,,
JVASP-70913,BeCdSe2,-0.35863,0.06,na,0.4059,,,,,
JVASP-91246,ZnP2PbO7,-2.09207,4.511,na,0.0,,,,,
JVASP-75605,SiAsRh2,0.16579,0.0,na,0.7924,,,,,
JVASP-87037,CaSnF6,-3.15212,5.515,8.149,0.0186,,,,,
JVASP-75789,AsP2Ir,0.54538,0.0,na,1.0892,,,,,
JVASP-70213,Be2GaCl,0.49454,0.0,na,1.0542,,,,,
JVASP-71023,LiSc2Be,0.16903,0.0,0.0,0.232,,,,,
JVASP-69885,BeGe2Te,0.73672,0.0,na,0.9482,,,,,
JVASP-71130,Be2PSe,0.58016,0.0,na,1.1314,,,,,
JVASP-69661,Be2InCu,0.31748,0.0,na,0.428,,,,,
JVASP-68220,Sc2BeCo,-0.03336,0.0,0.0,0.2717,,,,,
JVASP-92928,Mg6WC,0.18339,0.0,na,0.2564,,,,,
JVASP-70035,MnBe2Se,0.25478,0.0,0.0,0.8081,,,,,
JVASP-70290,NaBe2Cu,0.52574,0.0,na,0.638,,,,,
JVASP-70657,Be2TlPd,0.24713,0.0,0.0,0.5694,,,,,
JVASP-67695,YBeNb,0.23004,0.0,na,0.3558,,,,,
JVASP-67853,BeV2Ge,-0.03293,0.0,na,0.2562,,,,,
JVASP-70769,CaBePb,-0.17525,0.0,na,0.2417,,,,,
JVASP-69490,Be2PdW,-0.31317,0.0,na,0.1483,,,,,
JVASP-90766,HfMg3,0.19562,0.0,na,0.1956,,,,,
JVASP-67814,CaBeCu2,0.0796,0.0,na,0.2493,,,,,
JVASP-91559,ZrAu3,-0.54676,0.0,na,0.0,,,,,
JVASP-68472,BeRh2Cl,0.41754,0.0,0.0,1.127,,,,,
JVASP-93106,LaHfMg6,0.12126,0.0,na,0.187,,,,,
JVASP-105737,DyLuHg2,-0.37844,0.0,na,0.002,,,,,
JVASP-71202,BeIn2Bi,0.35323,0.0,na,0.3559,,,,,
JVASP-91937,PrSb2Au,-0.71971,0.0,na,0.0318,,,,,
JVASP-87902,YNiO3,-2.43813,0.0,na,0.0,,,,,
JVASP-69822,Be2NiIr,-0.28061,0.0,na,0.2991,,,,,
JVASP-71164,BeZn2Ga,0.18305,0.0,na,0.183,,,,,
JVASP-14798,MnB2,-0.23327,0.0,0.0,0.1068,,,,,
JVASP-70583,KBe2V,1.41112,0.0,na,1.565,,,,,
JVASP-14968,TiSi2,-0.43878,0.0,0.0,0.0269,,,,,
JVASP-68024,MnBeV2,-0.01026,0.0,na,0.2135,,,,,
JVASP-71093,BeNb2Ir,-0.28896,0.0,na,0.141,,,,,
JVASP-85778,NdAsSe,-1.52943,0.173,na,0.0,,,,,
JVASP-70118,YBe2P,-0.08083,0.0,na,0.8006,,,,,
JVASP-68282,HfMn2Be,0.1333,0.0,0.0,0.4059,,,,,
JVASP-88113,PAuClF3,-1.7149,3.249,na,0.0,,,,,
JVASP-68084,BeZn2Tc,0.13595,0.0,na,0.2482,,,,,
JVASP-2020,NiCl2,-0.62429,0.781,na,0.0,,,,,
JVASP-86896,Ca3SiBr2,-1.15627,0.0,na,0.2084,,,,,
JVASP-95821,KSbF6,-2.63927,5.015,na,0.0025,,,,,
JVASP-86719,Ce2CuGe6,-0.4183,0.0,na,0.0262,,,,,
JVASP-70953,CaBe2Cr,0.65862,0.0,na,0.8199,,,,,
JVASP-94748,HfMg6Al,0.04465,0.0,na,0.1445,,,,,
JVASP-75864,CdTcAs,1.16824,0.0,na,1.2998,,,,,
JVASP-70734,BeW2Se,-0.05878,0.0,na,0.6848,,,,,
JVASP-93174,LiMg6Cr,0.14854,0.0,na,0.1796,,,,,
JVASP-71131,CaBe2Bi,0.32957,0.0,na,0.7153,,,,,
JVASP-18406,SmH2,-0.70459,0.0,0.544,0.0,,,,,
JVASP-85846,Re3P4,-0.35046,0.0,na,0.0,,,,,
JVASP-75680,Be2AsCl,0.912,0.0,0.0,1.4823,,,,,
JVASP-75725,BAsPb,1.05192,0.0,na,1.1179,,,,,
JVASP-71239,BeGeRh,-0.05742,0.0,na,0.3526,,,,,
JVASP-91323,RbV3Se2O12,-1.91744,2.32,na,0.0,,,,,
JVASP-1795,RbYO2,-2.98914,3.793,5.253,0.0,,,,,
JVASP-3606,Rb2SnCl6,-1.5629,2.22,3.736,0.0,,,,,
JVASP-90624,SmMnGe2,-0.44017,0.0,na,0.0952,,,,,
JVASP-75752,CdFeAs,0.73057,0.0,na,0.8605,,,,,
JVASP-70914,HfBeNb2,0.02504,0.0,na,0.1193,,,,,
JVASP-71024,KBeRe2,0.52858,0.0,na,0.6651,,,,,
JVASP-68473,CaBe2Fe,0.34314,0.0,na,0.5491,,,,,
JVASP-71203,BeBiRu2,0.31019,0.0,na,0.4451,,,,,
JVASP-75833,LiHfAs,-0.0021,0.0,0.0,0.8405,,,,,
JVASP-69751,Mg2BeNi2,0.46694,0.0,na,0.7985,,,,,
JVASP-74144,BeGa2Co,-0.02411,0.0,na,0.2221,,,,,
JVASP-67955,Mn2BeGe,0.06607,0.0,na,0.1788,,,,,
JVASP-71060,BeNi2Bi,0.17487,0.0,na,0.4205,,,,,
JVASP-70845,BeV2Fe,-0.09206,0.0,0.0,0.125,,,,,
JVASP-71094,KBe2Rh,0.74366,0.0,na,1.1071,,,,,
JVASP-68169,TaBeV2,0.14423,0.0,na,0.2929,,,,,
JVASP-70222,Be2CoRh,-0.26313,0.0,na,0.1945,,,,,
JVASP-71318,Be2HgSe,0.58872,0.0,na,1.0539,,,,,
JVASP-67651,BeCrHg,0.62292,0.0,na,0.7276,,,,,
JVASP-86200,MgH2,-0.25802,2.922,na,0.0387,,,,,
JVASP-69887,Be2TlHg,0.54787,0.0,na,0.5479,,,,,
JVASP-75639,CuSbAs,0.17516,0.0,na,0.191,,,,,
JVASP-71166,BeTl2Br,0.14627,0.0,na,0.5914,,,,,
JVASP-67899,BeCuPt2,-0.18732,0.0,0.0,0.1277,,,,,
JVASP-43816,LiFeF3,-2.45583,0.399,na,0.0296,,,,,
JVASP-22681,CsCaH3,-0.53493,3.547,5.008,0.0,,,,,
JVASP-67614,BeZnCu4,0.21269,0.0,na,0.2954,,,,,
JVASP-3423,KInTe2,-0.74688,1.115,1.794,0.0,,,,,
JVASP-71354,ZrScBe,0.21968,0.0,na,0.3273,,,,,
JVASP-70506,Be2FeBr,0.45333,0.0,0.0,1.0057,,,,,
JVASP-71280,Be2CdSe,0.50448,0.0,na,0.9721,,,,,
JVASP-68026,Zr2BeP,-0.24424,0.0,na,0.5532,,,,,
JVASP-70990,BeNiP2,0.01113,0.0,na,0.3503,,,,,
JVASP-15041,MoC,0.12131,0.0,na,0.291,,,,,
JVASP-70879,KBe2Pt,0.65001,0.0,0.0,1.0135,,,,,
JVASP-69576,Be2BiMo,0.54245,0.0,0.0,0.7634,,,,,
JVASP-75726,CrAsPt2,0.16101,0.0,na,0.4658,,,,,
JVASP-52362,Li2CrS3,-1.05531,0.0,na,0.0606,,,,,
JVASP-86778,PrB2Rh2C,-0.60846,0.0,na,0.0,,,,,
JVASP-75753,Ti2ReAs,-0.17715,0.0,na,0.5106,,,,,
JVASP-70434,Be2CuBr,0.80649,0.0,0.0,1.2892,,,,,
JVASP-92889,Mg6NbCr,0.28825,0.0,na,0.2945,,,,,
JVASP-88331,Ba3AlHO4,-2.68423,4.114,na,0.0,,,,,
JVASP-94079,Mg6VSn,0.08987,0.0,na,0.1861,,,,,
JVASP-75834,TlTcAs,0.61737,0.0,na,0.7456,,,,,
JVASP-70810,BeCo4Sb,0.32562,0.0,0.0,0.4787,,,,,
JVASP-88805,BaTiO3,-0.1944,0.0,na,3.1762,,,,,
JVASP-69752,KBe2Re,1.50678,0.0,na,1.7777,,,,,
JVASP-15986,ZrSiO,-1.90397,0.0,0.0,0.2433,,,,,
JVASP-69948,Be2CoRu,-0.20774,0.0,0.0,0.0852,,,,,
JVASP-20092,CdO,-1.17119,0.0,1.306,0.0,,,,,
JVASP-71026,CaMgBe2,0.43578,0.0,na,0.5597,,,,,
JVASP-68088,BeZn2Se,0.40087,0.0,na,0.866,,,,,
JVASP-70586,Be2RhW,-0.14957,0.0,na,0.3509,,,,,
JVASP-75790,ZrAsCl,-0.19789,0.0,0.0,1.1835,,,,,
JVASP-86092,NdMg2Ni9,-0.28974,0.0,na,0.019,,,,,
JVASP-92248,YbNaO2,-2.27911,0.0,0.0,0.158,,,,,
JVASP-70037,Sr2BeCo2,0.58754,0.0,na,0.7163,,,,,
JVASP-91464,S,-0.01471,2.185,3.236,0.0,,,,,
JVASP-15678,CeCr2Si2C,-0.46363,0.0,0.0,0.0,,,,,
JVASP-96664,Nb6Fe16Si7,-0.41016,0.0,na,0.0,,,,,
JVASP-69823,Be2PPb,0.35068,0.0,na,0.4798,,,,,
JVASP-71062,CaBeSb,-0.51111,0.0,0.36,0.0958,,,,,
JVASP-69890,CaYBe2,0.32625,0.0,na,0.3972,,,,,
JVASP-94212,Cr2GeC,-0.09145,0.0,na,0.0188,,,,,
JVASP-91840,CuSnF6,-2.17167,0.0,0.0,0.0,,,,,
JVASP-67900,CaBeHg,-0.07845,0.0,na,0.2799,,,,,
JVASP-94824,Ac3Nd,0.02917,0.0,na,0.0377,,,,,
JVASP-95157,SrCu3Ru4O12,-1.28004,0.0,na,0.0075,,,,,
JVASP-67696,BeGaPb,0.45118,0.0,na,0.4512,,,,,
JVASP-85532,Fe3Pb4ClO8,-1.30874,0.0,na,0.0307,,,,,
JVASP-42790,Li4Co2OF7,-2.45212,0.156,na,0.0774,,,,,
JVASP-71095,SrBeTc,0.57146,0.0,na,0.681,,,,,
JVASP-86831,TlPAuSe3,-0.18999,0.874,na,0.0,,,,,
JVASP-71319,BeBiSb2,0.44639,0.0,na,0.4514,,,,,
JVASP-91790,SmCoGe2,-0.66539,0.0,na,0.0,,,,,
JVASP-71204,Be2PdSe,0.03986,0.0,na,0.7852,,,,,
JVASP-86432,EuTl2Pd,-0.40017,0.0,na,0.0644,,,,,
JVASP-70846,Sc2BeBi,0.08526,0.0,na,0.5144,,,,,
JVASP-69956,Be2CrNi,-0.00433,0.0,0.0,0.308,,,,,
JVASP-70811,CaHfBe2,0.26089,0.0,na,0.4319,,,,,
JVASP-75727,MgRe2As,0.38173,0.0,na,0.6809,,,,,
JVASP-67734,CaBeIr2,-0.11315,0.0,0.0,0.4002,,,,,
JVASP-69753,SrBe2Tc,0.93301,0.0,na,1.0973,,,,,
JVASP-70119,Be2HgSe,0.36992,0.0,na,0.8351,,,,,
JVASP-67652,BeSi2Os,0.07131,0.0,na,0.3215,,,,,
JVASP-86013,Rb3Cu8S6,-0.57642,0.0,na,0.0,,,,,
JVASP-96458,PrTlMo2O8,-2.43802,3.461,na,0.0,,,,,
JVASP-86966,CeGa6,-0.31451,0.0,na,0.0,,,,,
JVASP-105738,DyErRh2,-0.96028,0.0,na,0.001,,,,,
JVASP-90809,LaGa2Ni,-0.64697,0.0,na,0.0,,,,,