jid,formula,formation_energy_per_atom,optb88vdw_bandgap,mbj_bandgap,ehull,spacegroup_number,natoms,volume,bulk_modulus_kv,shear_modulus_gv
JVASP-66570,Ba4GePd,0.44117,0.0,0.0,0.966,,,,,
JVASP-63802,HoB2Os,-0.60006,0.0,na,0.0053,,,,,
JVASP-90081,ScSnPt,-1.00491,0.0,na,0.0073,,,,,
JVASP-66878,ZrBe2Se,0.01855,0.0,na,0.7976,,,,,
JVASP-67116,YZrBe,0.07586,0.0,na,0.1719,,,,,
JVASP-66204,Ba4FeMo,1.68169,0.0,0.0,1.6906,,,,,
JVASP-15224,YCo2B2,-0.60588,0.0,0.0,0.0,,,,,
JVASP-48182,LiVP3O9,-2.16644,1.128,na,0.0,,,,,
JVASP-69355,BaHgW2,1.56599,0.0,0.0,2.102,,,,,
JVASP-68295,BeCo2Bi,0.4894,0.0,0.0,0.6503,,,,,
JVASP-22708,Rb4I2O,-1.44466,0.854,2.178,0.0,,,,,
JVASP-66408,BaMgMn,0.96582,0.0,na,1.0668,,,,,
JVASP-63322,LiAuF4,-1.84033,2.086,na,0.0,,,,,
JVASP-86180,Cd2OsC6N6,0.1355,2.4,3.831,0.1443,,,,,
JVASP-86077,La2AlNi9,-0.42156,0.0,na,0.0,,,,,
JVASP-68174,HfBeZn2,-0.03151,0.0,na,0.1971,,,,,
JVASP-48241,Li4Ti3V3O12,-2.71385,0.0,na,0.0744,,,,,
JVASP-66676,BaTlSn,-0.0816,0.0,0.0,0.464,,,,,
JVASP-69188,Ba2TiBi,0.00288,0.0,0.0,0.6545,,,,,
JVASP-68532,BeCuSe2,0.11108,0.0,na,0.6434,,,,,
JVASP-63641,CrAsRh,-0.15528,0.0,na,0.1282,,,,,
JVASP-90504,FeB,-0.34711,0.0,na,0.0017,,,,,
JVASP-66714,Be2NbIr,-0.28664,0.0,na,0.1597,,,,,
JVASP-68108,KBeZn2,0.58191,0.0,na,0.6058,,,,,
JVASP-66644,Ba4TlTc,1.00504,0.0,0.0,1.1698,,,,,
JVASP-48888,Li3VF6,-3.07602,0.03,0.0,0.0443,,,,,
JVASP-69068,BaYPd2,-0.53072,0.0,0.0,0.2696,,,,,
JVASP-14964,Mn3Rh,0.05942,0.0,na,0.0723,,,,,
JVASP-66571,BaIrBr,0.1233,0.151,na,1.3008,,,,,
JVASP-63494,Al5BO9,-3.19087,5.015,na,0.004,,,,,
JVASP-91726,BaCoSO,-1.60349,0.0,na,0.1435,,,,,
JVASP-18787,PuZn2,-0.31886,0.0,na,0.0,,,,,
JVASP-62200,Fe5SiB2,-0.31327,0.0,0.0,0.0048,,,,,
JVASP-86763,Ba5Al5Pb,-0.42701,0.0,na,0.0,,,,,
JVASP-67353,ScMnBe,0.37179,0.0,na,0.5454,,,,,
JVASP-67191,YBe2Ir,-0.33713,0.0,na,0.2015,,,,,
JVASP-63136,YbB4Rh,-0.5456,0.0,na,0.0414,,,,,
JVASP-65353,BaNiGe2,-0.13468,0.0,na,0.4248,,,,,
JVASP-61409,Li3AlB2O6,-2.69987,5.269,na,0.019,,,,,
JVASP-67040,Be2RuSe,0.12879,0.0,na,0.7289,,,,,
JVASP-90412,FeSe,-0.09218,0.0,na,0.1989,,,,,
JVASP-68031,BeCoGe2,0.10028,0.0,na,0.2743,,,,,
JVASP-5275,K3AlH6,-0.2708,2.112,4.512,0.0561,,,,,
JVASP-90740,PbS,-0.63995,0.666,na,0.016,,,,,
JVASP-92229,ErNi,-0.56554,0.0,na,0.0,,,,,
JVASP-62988,FeTeAs,-0.25219,0.61,na,0.0,,,,,
JVASP-18549,YAlGe,-0.69901,0.0,na,0.0,,,,,
JVASP-69357,BaLi4Bi,-0.2556,0.0,na,0.1647,,,,,
JVASP-61149,CeAl3,-0.4293,0.0,na,0.0,,,,,
JVASP-67531,Be2SnTe,0.34759,0.0,na,0.5591,,,,,
JVASP-52577,Li2AgF3,-2.35519,2.162,na,0.1249,,,,,
JVASP-66206,Ba4HfTi,1.20538,0.0,0.0,1.2093,,,,,
JVASP-67619,BeVFe,-0.05728,0.0,na,0.1862,,,,,
JVASP-66035,BaScCl,0.06571,0.0,0.0,1.4137,,,,,
JVASP-66410,BaLaSc,0.88,0.0,na,0.88,,,,,
JVASP-68591,Be2PtPb,-0.00302,0.0,na,0.3837,,,,,
JVASP-67581,NaBePt2,-0.21636,0.0,0.0,0.2203,,,,,
JVASP-17254,Cu2SnSe4,-0.19187,0.0,0.0,0.0736,,,,,
JVASP-67656,BeNbPb,0.48673,0.0,0.0,0.6125,,,,,
JVASP-67118,Be2VSi,0.16542,0.0,na,0.4039,,,,,
JVASP-68533,Sr2Be2Cr,0.63267,0.0,na,0.7583,,,,,
JVASP-61919,SrCu2B2O6,-2.04861,0.003,0.0,0.072,,,,,
JVASP-48337,LiMn2O2F3,-2.32399,0.0,0.0,0.0,,,,,
JVASP-90284,RuI2N6,2.37608,0.0,na,2.3864,,,,,
JVASP-86938,Er2CN2O2,-2.39129,3.997,na,0.0,,,,,
JVASP-92176,KZn4P3,-0.34917,0.494,na,0.0,,,,,
JVASP-88948,SrZn2,-0.26377,0.0,na,0.0609,,,,,
JVASP-85959,Cr3AgO8,-1.73259,0.222,na,0.0002,,,,,
JVASP-66789,TiBeTl,0.32002,0.0,0.0,0.4352,,,,,
JVASP-63236,SbAsPd5,-0.31581,0.0,na,0.0309,,,,,
JVASP-67966,KTi2Be,1.12394,0.0,na,1.2125,,,,,
JVASP-66645,Ba4PIr,0.67852,0.0,na,1.1726,,,,,
JVASP-85751,Eu2O3,-3.72192,3.913,na,0.0,,,,,
JVASP-85689,K2H6PbO6,-1.24096,2.121,na,0.0,,,,,
JVASP-89934,TaMnGe,-0.2269,0.0,na,0.0,,,,,
JVASP-67855,BeSi2Ge,0.54354,0.0,na,0.551,,,,,
JVASP-90839,B3Mo,-0.30612,0.0,na,0.0,,,,,
JVASP-85500,EuH3O3,-2.04345,3.773,6.121,0.0001,,,,,
JVASP-62838,DyVB4,-0.72504,0.0,0.0,0.0,,,,,
JVASP-45925,Li2Mn3GaO8,-2.03525,0.0,0.0,0.0173,,,,,
JVASP-53573,KBi2F7,-2.62698,4.477,6.374,0.0311,,,,,
JVASP-86129,YCrO4,-2.82798,0.0,na,0.0101,,,,,
JVASP-91819,NaGaTe2,-0.58965,1.345,2.462,0.0176,,,,,
JVASP-86331,CaGe2,-0.55685,0.0,0.0,0.0,,,,,
JVASP-67698,BeCrSi,0.29044,0.0,0.0,0.499,,,,,
JVASP-68474,BeFeSb,0.23793,0.0,0.337,0.381,,,,,
JVASP-66677,Ba4GeRh,0.661,0.0,0.0,0.9897,,,,,
JVASP-63643,MnAsRu,-0.08054,0.0,na,0.0935,,,,,
JVASP-85619,Ce2InNi2,-0.50842,0.0,na,0.0,,,,,
JVASP-18698,DyRh5,-0.31438,0.0,na,0.0789,,,,,
JVASP-68354,MnBe2In,0.26246,0.0,0.0,0.4401,,,,,
JVASP-48695,Na2MnO3,-1.90007,1.312,na,0.0247,,,,,
JVASP-66036,Ba4FeTe,0.65776,0.0,na,1.2942,,,,,
JVASP-86639,LaCN2Cl,-1.3957,3.472,na,0.0001,,,,,
JVASP-3417,BaPbF6,-2.82521,2.849,4.345,0.0,,,,,
JVASP-15078,CeC2,-0.28246,0.0,na,0.0135,,,,,
JVASP-87009,LaSeF,-3.17792,1.797,na,0.0,,,,,
JVASP-63323,YbAlB4,-0.42503,0.0,na,0.0294,,,,,
JVASP-67816,BeCuTc,0.0568,0.0,na,0.1663,,,,,
JVASP-4744,TlNi,0.20965,0.0,0.0,0.2097,,,,,
JVASP-14258,BaF2,-3.97981,5.865,6.876,0.0801,,,,,
JVASP-66412,Ba4OsPb,0.92595,0.0,na,1.2307,,,,,
JVASP-68771,BeTcGe,0.30121,0.0,na,0.4572,,,,,
JVASP-62203,CrB4,-0.29257,0.0,na,0.0,,,,,
JVASP-18889,ZrO,-2.3878,0.0,0.13,0.4363,,,,,
JVASP-90795,C3N,3.61212,0.0,na,3.6184,,,,,
JVASP-15738,ThAs2,-1.09539,0.0,na,0.0357,,,,,
JVASP-67041,TiBe2Sn,0.19633,0.0,na,0.4613,,,,,
JVASP-88250,LiAlSiO4,-2.97245,4.909,na,0.014,,,,,
JVASP-68594,ScBe2Br,0.27926,0.0,na,0.9764,,,,,
JVASP-87078,Te4Mo3,-0.22725,0.008,na,0.0,,,,,
JVASP-87975,RbClO4,-0.65183,6.028,8.99,0.053,,,,,
JVASP-67782,BeGaTe,0.34155,0.0,0.0,0.6236,,,,,
JVASP-85899,NdCu2Ge2,-0.53386,0.0,na,0.0,,,,,
JVASP-88673,Fe2PO4F,-1.8074,0.0,na,0.0113,,,,,
JVASP-86705,Bi2Te3,0.00814,0.0,na,0.2469,,,,,
JVASP-87867,Nd10Se19,-1.77145,0.343,na,0.0,,,,,
JVASP-68411,Y2BeGa,-0.06788,0.0,na,0.3003,,,,,
JVASP-63137,CaGa2As2,-0.68111,0.187,0.517,0.0,,,,,
JVASP-91773,SnO,-1.31191,1.64,2.674,0.1279,,,,,
JVASP-68838,Be2PdBr,0.06005,0.0,na,0.7621,,,,,
JVASP-91875,Mg7C,0.50509,0.0,na,0.5055,,,,,
JVASP-61150,HgAs2O6,-1.04157,0.741,2.428,0.0,,,,,
JVASP-69358,BaCd2Se,-0.77834,0.0,na,0.3226,,,,,
JVASP-1708,RbNdSe2,-1.83127,1.864,2.804,0.0,,,,,
JVASP-3195,NdSeF,-3.05269,1.037,1.828,0.0,,,,,
JVASP-91545,NdInNi2,-0.43865,0.0,na,0.0,,,,,
JVASP-63496,Dy5Ge3B,-0.68587,0.0,na,0.1201,,,,,
JVASP-67582,KBePb2,0.28376,0.0,na,0.4528,,,,,
JVASP-63804,PrAl3B4O12,-3.05276,5.113,na,0.0,,,,,
JVASP-87325,Ca2CrO8,-1.88024,0.331,na,0.1263,,,,,
JVASP-66791,MnBe2Sn,0.28965,0.0,0.0,0.466,,,,,
JVASP-90670,NO,0.83,0.0,na,0.9715,,,,,
JVASP-67738,SrBePd,-0.21892,0.0,na,0.2762,,,,,
JVASP-67440,Be2CoHg,0.27113,0.0,na,0.5183,,,,,
JVASP-91924,TmAgTe2,-0.9019,0.908,1.29,0.0,,,,,
JVASP-66037,Ba4SiNi,0.79209,0.0,na,1.0247,,,,,
JVASP-68228,ScBeV2,0.22543,0.0,0.0,0.3013,,,,,
JVASP-15040,LiPd,-0.46916,0.0,na,0.0,,,,,
JVASP-66885,TiBeCd,0.06256,0.0,na,0.206,,,,,
JVASP-67120,TiBe2Cr,0.07159,0.0,0.0,0.2797,,,,,
JVASP-66966,BeNbRh,-0.36481,0.0,0.0,0.0541,,,,,
JVASP-90208,Er6MnTe2,-0.59016,0.0,na,0.0032,,,,,
JVASP-86306,Sr5In3,-0.39796,0.0,na,0.0,,,,,
JVASP-61675,LiAlSi2O6,-2.97345,5.765,na,0.0,,,,,
JVASP-68034,BeMo2Br,0.91763,0.0,na,1.3737,,,,,
JVASP-53662,BaFe2S4,-0.9598,0.0,na,0.1286,,,,,
JVASP-42842,Na14Co2O9,-1.3325,0.0,na,0.0764,,,,,
JVASP-86810,Rb3Bi,-0.42597,0.0,0.72,0.0013,,,,,
JVASP-63646,AlAsO4,-2.08854,4.095,na,0.0496,,,,,
JVASP-91587,TmCoGe2,-0.59317,0.0,na,0.0066,,,,,
JVASP-85413,MgWO4,-2.66727,2.826,3.877,0.0,,,,,
JVASP-68296,KTa2Be,1.38302,0.0,0.0,1.493,,,,,
JVASP-69189,Ba2YZn,0.20434,0.0,0.0,0.4102,,,,,
JVASP-67532,BeSnGe,0.43057,0.0,na,0.4306,,,,,
JVASP-68356,BeGeTe,0.22415,0.0,na,0.5062,,,,,
JVASP-88766,BaFeSi4O10,-2.73292,1.076,na,0.0399,,,,,
JVASP-86535,Pr5Ru2O12,-2.80566,0.169,na,0.0,,,,,
JVASP-86881,Ca3SiBr2,-1.14567,0.0,na,0.219,,,,,
JVASP-88067,TiSO5,-2.11409,2.132,na,0.0,,,,,
JVASP-68905,LiBePt,-0.22153,0.0,na,0.3928,,,,,
JVASP-67042,YBe2Ni,0.01131,0.0,na,0.3,,,,,
JVASP-61939,YbB2Ir3,-0.65975,0.0,na,0.0,,,,,
JVASP-90086,K2Tc,1.28195,0.0,na,1.2877,,,,,
JVASP-48957,Li7VO4F2,-2.35969,0.389,na,0.1627,,,,,
JVASP-66678,BaNaMo,1.63919,0.0,0.0,1.6749,,,,,
JVASP-69359,BaNa2Ca,0.05002,0.0,0.0,0.084,,,,,
JVASP-68534,Be2Cr2Pt,0.10047,0.0,na,0.3909,,,,,
JVASP-68111,SrTa2Be,0.86795,0.0,na,0.9758,,,,,
JVASP-14852,YZn,-0.15231,0.0,0.0,0.2594,,,,,
JVASP-63499,MnAsRu,-0.08049,0.0,na,0.0935,,,,,
JVASP-62846,MgBIr,-0.45973,0.0,na,0.0001,,,,,
JVASP-2032,Ba2PCl,-1.78961,1.063,1.839,0.0,,,,,
JVASP-67356,BeNbRu,-0.19549,0.0,0.0,0.0802,,,,,
JVASP-90153,CeCdPt,-0.82573,0.0,na,0.0,,,,,
JVASP-63328,CrAsRh,-0.1544,0.0,na,0.129,,,,,
JVASP-48424,Li5CoO3F,-2.01127,0.103,na,0.1238,,,,,
JVASP-91975,CrCdF6,-2.45898,0.0,0.158,0.0,,,,,
JVASP-67739,Be2ReTe,0.65882,0.0,0.0,1.0047,,,,,
JVASP-90505,Rb2CoF6,-2.44205,0.0,na,0.0183,,,,,
JVASP-91684,LiAl,-0.17415,0.0,na,0.0675,,,,,
JVASP-68414,BeTe2Se,-0.03113,0.0,na,0.434,,,,,
JVASP-86414,BaVS3,-1.54332,0.0,0.0,0.0026,,,,,
JVASP-66891,BeVP,0.16294,0.0,na,0.7061,,,,,
JVASP-90285,GeN2F6,-0.20914,0.0,na,1.1024,,,,,
JVASP-15699,NpO,-2.57466,0.0,0.0,0.1391,,,,,
JVASP-68708,BeCdPb2,0.4967,0.0,na,0.4992,,,,,
JVASP-67657,Na2BeIr,0.38434,0.0,na,0.5447,,,,,
JVASP-90413,TbInCo2,-0.27298,0.0,na,0.0016,,,,,
JVASP-67908,TaBeW2,-0.04785,0.0,0.0,0.3852,,,,,
JVASP-67271,MgBeTc,0.26617,0.0,na,0.3757,,,,,
JVASP-43657,FePO4,-1.86681,0.0,na,0.015,,,,,
JVASP-72816,Be2InCu,0.38707,0.0,na,0.4976,,,,,
JVASP-61421,Y3AlNiS7,-1.73074,0.209,na,0.03,,,,,
JVASP-67817,BeGaCu4,0.20304,0.0,na,0.2882,,,,,
JVASP-89134,TlCdI3,-0.62545,2.053,2.913,0.0103,,,,,
JVASP-18899,AlO3,-1.26344,0.0,na,0.8118,,,,,
JVASP-66718,Be2FeIr,-0.26528,0.0,0.0,0.0869,,,,,
JVASP-73359,Be2VPb,0.58779,0.0,na,0.7395,,,,,
JVASP-63138,HfNi4As2,-0.44954,0.0,na,0.0,,,,,
JVASP-63242,B2Mo2Os,-0.31836,0.0,na,0.0436,,,,,
JVASP-48005,FeOF,-1.73546,0.0,na,0.1055,,,,,
JVASP-67620,LiBeV2,0.3062,0.0,na,0.3823,,,,,
JVASP-68359,ZrBe2Bi,0.32412,0.0,na,0.6161,,,,,
JVASP-67967,BeSi2Sb,0.80769,0.0,na,0.8101,,,,,
JVASP-67121,TaBe2Ru,-0.16118,0.0,na,0.1593,,,,,
JVASP-16176,Li2NbF6,-3.11482,0.0,na,0.0226,,,,,
JVASP-86764,HoSnAu,-0.82071,0.0,na,0.0479,,,,,
JVASP-73845,Be2TlW,0.56937,0.0,na,0.7818,,,,,
JVASP-68035,BeGaSe2,-0.12557,0.0,na,0.6307,,,,,
JVASP-68595,BeNiIr,-0.15443,0.0,na,0.2321,,,,,
JVASP-92230,RuCl3,-0.5708,0.0,na,0.0,,,,,
JVASP-43213,Li2MnCuO4,-1.6975,0.0,0.0,0.1229,,,,,
JVASP-67194,Be2ZnCr,0.16864,0.0,na,0.3257,,,,,
JVASP-67043,HfBe2Ge,0.13934,0.0,na,0.5481,,,,,
JVASP-68642,BeTl2Ga,0.53743,0.0,na,0.5374,,,,,
JVASP-65355,BaSc2Nb,0.29596,0.0,0.0,0.296,,,,,
JVASP-66679,Ba4YRe,1.29762,0.0,na,1.3689,,,,,
JVASP-68177,BeMoPt2,-0.14439,0.0,na,0.2691,,,,,
JVASP-5827,CuSe2Cl,-0.28854,0.551,0.503,0.0,,,,,
JVASP-86250,CaCdAu,-0.70078,0.0,na,0.0,,,,,
JVASP-63330,ErCu4Au,-0.37904,0.0,na,0.0,,,,,
JVASP-67360,Be2VCo,-0.18947,0.0,na,0.085,,,,,
JVASP-72842,Be2CrCd,0.38898,0.0,na,0.5485,,,,,
JVASP-43561,LiFeF4,-2.4985,1.292,na,0.0762,,,,,
JVASP-89516,Yb5Al2Sb6,-0.84698,0.0,na,0.0,,,,,
JVASP-89935,Sm2MnGa6,-0.52975,0.0,na,0.0,,,,,
JVASP-87869,BaSi2,-0.39855,0.782,na,0.0,,,,,
JVASP-86939,KNbCu2Se4,-0.73983,1.407,na,0.0,,,,,
JVASP-68475,BeNbPb2,0.63873,0.0,0.0,0.733,,,,,
JVASP-50344,Ba4HfO6,-3.10005,3.077,na,0.0799,,,,,
JVASP-68906,HfMgBe2,0.14308,0.0,0.0,0.3099,,,,,
JVASP-61681,Sr11Al4Sn3,-0.48453,0.0,na,0.0,,,,,
JVASP-90027,K2OsO6,-1.0173,0.0,0.0,0.1738,,,,,
JVASP-88949,Ba3CaIr2O9,-2.18193,0.0,na,0.0087,,,,,
JVASP-88447,La2Zr2O7,-3.77681,4.03,na,0.0,,,,,
JVASP-14965,NiTe2,-0.21349,0.0,0.0,0.0,,,,,
JVASP-73375,LaHfBe,0.43112,0.0,na,0.5423,,,,,
JVASP-22596,MnPtF6,-1.69349,0.0,0.0,0.1882,,,,,
JVASP-90609,Sc3OsC4,-0.54329,0.0,na,0.0092,,,,,
JVASP-66721,BeFeTc,0.1338,0.0,na,0.2689,,,,,
JVASP-68711,Be2ZnMo,0.13493,0.0,na,0.3558,,,,,
JVASP-86181,Ti4AlN3,-1.60391,0.0,na,0.0,,,,,
JVASP-61436,LiAuS,-0.79249,1.526,na,0.0219,,,,,
JVASP-68113,LiBeTe2,-0.27457,0.0,na,0.3539,,,,,
JVASP-67442,BeNbNi,-0.19537,0.0,0.0,0.1163,,,,,
JVASP-66680,Ba4VPd,1.15882,0.0,na,1.3936,,,,,
JVASP-67857,NaMgBe,0.40699,0.0,na,0.4166,,,,,
JVASP-66967,MnBeTl,0.74627,0.0,0.0,0.8638,,,,,
JVASP-91727,YAlPd2,-0.97521,0.0,na,0.0,,,,,
JVASP-66038,Ba4TaRh,1.33708,0.0,0.0,1.4973,,,,,
JVASP-67583,NaBeIn,0.37559,0.0,0.0,0.5013,,,,,
JVASP-67272,ScBe2W,-0.00634,0.0,na,0.2584,,,,,
JVASP-68772,TiBe2Hg,0.31401,0.0,0.0,0.4922,,,,,
JVASP-91637,AsNF6,-0.96825,0.647,na,0.5496,,,,,
JVASP-90886,InSiCN,-0.10663,1.9,2.726,0.4475,,,,,
JVASP-68178,BeRe2Bi,0.96595,0.0,0.0,1.1003,,,,,
JVASP-63144,CuBSe2,-0.11821,1.617,1.983,0.0,,,,,
JVASP-87978,Hg3Te2I2,-0.08406,1.281,na,0.0,,,,,
JVASP-85753,NaLiCO3,0.25905,0.0,na,2.2055,,,,,
JVASP-42597,LiVF4,-2.96304,1.21,na,0.1105,,,,,
JVASP-67199,ZrMnBe,0.37931,0.0,na,0.5782,,,,,
JVASP-42261,TiVO4,-2.8461,0.0,1.916,0.0654,,,,,
JVASP-43975,LiNiBO3,-1.90396,0.443,na,0.0718,,,,,
JVASP-85340,KUCuSe3,-1.11839,0.0,0.0,0.0,,,,,
JVASP-16092,PrSiRu,-0.71451,0.0,na,0.0,,,,,
JVASP-62847,HfCo3B2,-0.5887,0.0,0.0,0.0,,,,,
JVASP-42756,Li4Ti3Fe3Ni2O16,-2.10115,0.0,na,0.0775,,,,,
JVASP-67361,ZrBe2Ru,-0.26158,0.0,na,0.176,,,,,
JVASP-67534,Be2GeW,0.30399,0.0,na,0.5164,,,,,
JVASP-63501,Zr5Al3,-0.35338,0.0,na,0.0627,,,,,
JVASP-66794,HfBeNi,-0.23736,0.0,0.0,0.2394,,,,,
JVASP-88251,NaInSi2O6,-2.53455,3.812,na,0.0,,,,,
JVASP-68596,TaBe2Br,0.40921,0.0,na,0.957,,,,,
JVASP-68841,BeTe2Pd,0.30547,0.0,0.0,0.7011,,,,,
JVASP-67783,ZrTaBe,0.07424,0.0,na,0.2082,,,,,
JVASP-63652,NdGe2Au2,-0.53184,0.0,na,0.0111,,,,,
JVASP-90567,MgZn3,-0.02939,0.0,na,0.0726,,,,,
JVASP-67658,Be2CdBi,0.78232,0.0,na,0.7848,,,,,
JVASP-73377,HfBe2Sb,0.28438,0.0,na,0.6583,,,,,
JVASP-67700,BeAgMo,0.22622,0.0,na,0.3735,,,,,
JVASP-63810,LiBC,-0.47033,1.272,na,0.0,,,,,
JVASP-14580,BMo2,-0.28426,0.0,0.0,0.0174,,,,,
JVASP-5176,CuBr,-0.25511,1.012,1.877,0.0177,,,,,
JVASP-86482,LiPr2Ge6,-0.45582,0.0,na,0.0812,,,,,
JVASP-68535,CaBeSe2,-0.60956,0.0,na,0.9436,,,,,
JVASP-67859,BeGeSe2,0.36406,0.0,na,0.9593,,,,,
JVASP-67740,SrBeRh,-0.21357,0.0,na,0.1858,,,,,
JVASP-66039,Ba4ZrRu,1.28857,0.0,na,1.5178,,,,,
JVASP-66681,Ba4GeSe,0.05178,0.0,0.0,1.0725,,,,,
JVASP-53451,FeSbO4,-1.41829,0.0,0.0,0.0425,,,,,
JVASP-85960,La2Pd2O5,-2.40391,1.186,na,0.0,,,,,
JVASP-90742,CaHg3,-0.25058,0.0,na,0.0041,,,,,
JVASP-68643,Be2NbOs,-0.10441,0.0,na,0.1173,,,,,
JVASP-86078,NdMgSi2,-0.51564,0.0,na,0.0,,,,,
JVASP-28374,CN2,0.82056,2.017,3.474,0.8319,,,,,
JVASP-67124,BeReHg,0.68703,0.0,na,0.8662,,,,,
JVASP-14027,LiBH,-0.28273,0.0,na,0.1137,,,,,
JVASP-63245,KBe2B3O7,-2.71207,5.749,na,0.0174,,,,,
JVASP-63339,Tb5Ge3B,-0.6759,0.0,na,0.1066,,,,,
JVASP-68236,BeCuRh2,-0.0533,0.0,0.0,0.2463,,,,,
JVASP-65356,BaTeIr2,0.31051,0.0,na,1.2643,,,,,
JVASP-66896,ZrBeBi,0.19679,0.0,0.0,0.5242,,,,,
JVASP-15983,CaGe2Au2,-0.44839,0.0,na,0.0335,,,,,
JVASP-87010,U2AlCu3,-0.01641,0.0,na,0.1097,,,,,
JVASP-88674,AgSbO3,-1.09048,0.221,na,0.0,,,,,
JVASP-48892,Li2CrP2O8,-2.26791,0.0,0.0,0.0,,,,,
JVASP-67818,MgBeCr,0.41358,0.0,na,0.5183,,,,,
JVASP-90796,CeAl4Si2Ir,-0.65333,0.0,na,0.0,,,,,
JVASP-91876,LiMg7,-0.02226,0.0,na,0.0088,,,,,
JVASP-67972,KBeRu2,1.15178,0.0,na,1.2888,,,,,
JVASP-90671,PrFeSb2,-0.5199,0.0,na,0.1187,,,,,
JVASP-86640,BaAl2Si2,-0.32351,0.0,na,0.0667,,,,,
JVASP-91976,CrHgF6,-2.11228,0.0,na,0.0,,,,,
JVASP-67274,Be2MoRu,-0.02662,0.0,na,0.2432,,,,,
JVASP-68115,BeNbZn2,-0.01369,0.0,na,0.1909,,,,,
JVASP-68417,Be2PdRh,-0.64314,0.0,0.0,0.0,,,,,
JVASP-67536,Be2ZnPd,-0.21606,0.0,na,0.1412,,,,,
JVASP-90286,Ca2H6Ru,-0.65471,2.621,na,0.0,,,,,
JVASP-87080,KCu4As2,-0.17895,0.0,na,0.0,,,,,
JVASP-73859,BeV2In,0.16879,0.0,0.0,0.246,,,,,
JVASP-92177,Si7Ge,0.00846,0.486,1.07,0.0151,,,,,
JVASP-67703,SrBe2Pb,0.53489,0.0,na,0.8464,,,,,
JVASP-12052,Co2NiO6,-0.92602,0.0,na,0.0628,,,,,
JVASP-67621,TaBeCr,0.26271,0.0,na,0.4466,,,,,
JVASP-91820,BaCuSeO,-1.337,0.0,0.0,0.2399,,,,,
JVASP-53575,Pr2PbS4,-1.76638,2.249,2.657,0.0208,,,,,
JVASP-63146,Te2Au,-0.068,0.0,na,0.0085,,,,,
JVASP-68478,MgBeZn,0.30059,0.0,na,0.378,,,,,
JVASP-67660,BeCd4Os,0.91295,0.0,na,0.9196,,,,,
JVASP-85900,Th3B2C3,-0.531,0.0,na,0.0,,,,,
JVASP-68907,BeSn2Hg,0.54,0.0,na,0.54,,,,,
JVASP-67126,BeNiBr,0.35485,0.0,na,1.0451,,,,,
JVASP-68537,Be2ReHg,0.28733,0.0,na,0.5561,,,,,
JVASP-67047,Be2FeP,0.21598,0.0,na,0.548,,,,,
JVASP-68361,BeCoPb2,0.75523,0.0,0.0,0.9133,,,,,
JVASP-61944,GaAu2,-0.13416,0.0,na,0.0122,,,,,
JVASP-68182,BeCoIr2,-0.17547,0.0,na,0.0587,,,,,
JVASP-68773,BeGeIr,-0.00614,0.0,na,0.3281,,,,,
JVASP-90415,CoN6Cl2,2.58785,0.0,na,2.7872,,,,,
JVASP-67446,NaBeBr,-0.09194,0.424,0.94,1.0449,,,,,
JVASP-68645,BeSnPb,0.30347,0.0,na,0.3035,,,,,
JVASP-86536,CrFeBi2O6,-1.51591,0.0,0.0,0.0596,,,,,
JVASP-48697,Mn3O4F2,-2.00108,0.0,na,0.0,,,,,
JVASP-63341,Na2BiAu,-0.40764,0.427,na,0.0001,,,,,
JVASP-89142,BaVSe3,-1.27994,0.0,na,0.0324,,,,,
JVASP-48242,Li3Ti2Ni2O8,-2.21357,0.0,na,0.0911,,,,,
JVASP-67784,TaBe2Sn,0.3856,0.0,na,0.5791,,,,,
JVASP-1711,RbSmSe2,-1.83724,1.869,2.968,0.0,,,,,
JVASP-15188,CeNi2Ge2,-0.65872,0.0,na,0.0,,,,,
JVASP-1297,Na2Se,-1.15601,2.173,3.933,0.0,,,,,
JVASP-63811,ZrCo3B2,-0.5746,0.0,na,0.0054,,,,,
JVASP-86253,Eu2PI,-1.42278,0.0,na,0.0,,,,,
JVASP-85620,CeZn3,-0.31118,0.0,na,0.0305,,,,,
JVASP-72866,TiBe2Cd,0.17258,0.0,0.0,0.3572,,,,,
JVASP-86130,KHgC2IN2,-0.05628,2.523,3.703,0.4011,,,,,
JVASP-65357,BaNiMo2,0.67602,0.0,na,0.7151,,,,,
JVASP-63655,HfAsOs,-0.51835,0.0,na,0.1528,,,,,
JVASP-66682,BaCaCr,1.11305,0.0,0.0,1.121,,,,,
JVASP-14853,SrGa2,-0.55752,0.0,0.0,0.0,,,,,
JVASP-90092,LuAlAu,-0.84364,0.0,na,0.0,,,,,
JVASP-89936,MnN2Cl6,0.7947,0.0,na,1.152,,,,,
JVASP-18658,TmCd3,-0.27526,0.0,na,0.0,,,,,
JVASP-85414,Eu2Ga3Ir,-0.71908,0.0,na,0.0,,,,,
JVASP-68843,LiBeSn2,0.16348,0.0,na,0.3602,,,,,
JVASP-66902,Be2OsBr,0.32528,0.0,na,0.7261,,,,,
JVASP-73969,CaMn2Be,0.2703,0.0,na,0.3627,,,,,
JVASP-88960,RbAlO2,-2.78458,3.736,na,0.0,,,,,
JVASP-88770,Ba3Nb6Si4O26,-2.95535,2.422,na,0.0016,,,,,
JVASP-90610,InGaSe2,-0.51923,0.223,na,0.0262,,,,,
JVASP-66724,BeGaIr,-0.38386,0.0,0.0,0.0587,,,,,
JVASP-86882,PrAlPt,-1.08435,0.0,na,0.0,,,,,
JVASP-63249,PrGeAu,-0.85138,0.0,na,0.0,,,,,
JVASP-68712,BeGeTe2,0.47363,0.0,0.0,0.7403,,,,,
JVASP-15309,DySi2Ir2,-1.03129,0.0,0.0,0.0,,,,,
JVASP-63503,Al5BO9,-3.19087,5.015,na,0.004,,,,,
JVASP-66040,BaLiBr,-0.65665,0.403,na,0.5409,,,,,
JVASP-73866,BeInIr2,-0.04945,0.0,na,0.1556,,,,,
JVASP-87874,NaZr2TiF11,-3.60517,0.0,na,0.0,,,,,
JVASP-73379,LiBe2Ge,0.17848,0.0,na,0.3389,,,,,
JVASP-66968,MnBe2Cu,0.04741,0.0,na,0.2238,,,,,
JVASP-68479,BeCdTc,0.40877,0.0,na,0.5216,,,,,
JVASP-86941,Ba2CaReO6,-2.76182,0.0,na,0.0,,,,,
JVASP-62212,Er2Au,-0.69781,0.0,0.0,0.0065,,,,,
JVASP-67704,ScBeGa4,0.13495,0.0,na,0.4571,,,,,
JVASP-68363,BeInW,0.45316,0.0,0.0,0.6894,,,,,
JVASP-1882,ErN,-2.01006,0.238,1.203,0.0,,,,,
JVASP-42339,Na2Co2O3,-1.14883,0.0,na,0.2051,,,,,
JVASP-67741,ZrBeCr,0.3343,0.0,na,0.4555,,,,,
JVASP-68297,BeCoP2,0.28086,0.0,0.0,0.7052,,,,,
JVASP-68418,BeTl2Hg,0.39167,0.0,na,0.3917,,,,,
JVASP-67860,BeSnCl,0.07085,0.0,0.0,0.8171,,,,,
JVASP-67127,BeInPd,-0.22033,0.0,na,0.1802,,,,,
JVASP-67622,Ta2BeCu,0.25357,0.0,na,0.3614,,,,,
JVASP-68910,Be2CdCo,0.00476,0.0,na,0.2544,,,,,
JVASP-91776,K3Mn,0.64857,0.0,0.0,0.655,,,,,
JVASP-63657,BN,-1.19661,3.706,na,0.1922,,,,,
JVASP-63155,Na3As,-0.49168,0.2,na,0.0,,,,,
JVASP-68597,Y2BeIn,0.00619,0.0,na,0.314,,,,,
JVASP-67584,CaBeOs2,0.42897,0.0,na,0.4665,,,,,
JVASP-68183,BeSn2Pb,0.37929,0.0,na,0.3793,,,,,
JVASP-90155,HoAlCu,-0.49927,0.0,na,0.0,,,,,
JVASP-91925,NbCu3S4,-0.63459,1.64,1.568,0.0,,,,,
JVASP-91588,SrTl2Pd,-0.46234,0.0,na,0.0,,,,,
JVASP-85691,Na2HfH6O6,-1.7406,4.758,7.322,0.0,,,,,
JVASP-86706,MoCl3,-0.92461,0.418,na,0.0,,,,,
JVASP-67785,YBeNb4,0.47458,0.0,na,0.5374,,,,,
JVASP-87331,SbIrS,-0.50734,1.06,1.369,0.0057,,,,,
JVASP-73382,BeSn2Br2,0.35911,0.0,na,1.0004,,,,,
JVASP-68646,BeHgRh,0.19837,0.0,na,0.5978,,,,,
JVASP-67909,BeFe2Cu,0.06851,0.0,0.0,0.1707,,,,,
JVASP-67448,Be2InP,0.37537,0.0,na,0.5058,,,,,
JVASP-86415,ErMn6Ge6,-0.25688,0.0,na,0.0,,,,,
JVASP-63813,Na2BiAu,-0.40764,0.427,0.952,0.0001,,,,,
JVASP-3897,RhBr3,-0.45002,1.167,1.316,0.0,,,,,
JVASP-88070,CuB4O7,-2.21763,0.363,na,0.0251,,,,,
JVASP-73970,CaBeGe2,0.01196,0.0,na,0.4311,,,,,
JVASP-85341,NdGd2,-0.68037,0.0,na,0.0,,,,,
JVASP-62553,NaCaBe2B2O6F,-2.94871,5.396,8.152,0.0195,,,,,
JVASP-74149,Mn2BeCl,0.20883,0.0,na,0.8126,,,,,
JVASP-66042,Ba4CuOs,1.2364,0.0,0.0,1.2792,,,,,
JVASP-61446,Ho2Al3Co14,-0.23796,0.0,0.0,0.0676,,,,,