jid,formula,formation_energy_per_atom,optb88vdw_bandgap,mbj_bandgap,ehull,spacegroup_number,natoms,volume,bulk_modulus_kv,shear_modulus_gv
JVASP-68038,Mn2BeCu,0.13943,0.0,na,0.2276,,,,,
JVASP-86333,Th2Cu,-0.12139,0.0,0.0,0.0007,,,,,
JVASP-91728,Pr2BC,-0.32342,0.0,na,0.0,,,,,
JVASP-91546,BaCdPF,-1.93402,1.048,1.947,0.0,,,,,
JVASP-12038,AlHO2,-2.43011,5.168,6.951,0.0553,,,,,
JVASP-90209,MgBr2O6,-0.55058,4.003,na,0.1303,,,,,
JVASP-85501,MoH2O4,-1.57548,2.761,3.26,0.0557,,,,,
JVASP-90028,SmZnPd,-0.75032,0.0,na,0.0,,,,,
JVASP-60710,Bi2Pt,-0.20852,0.0,na,0.0308,,,,,
JVASP-66727,BeCuHg,0.49275,0.0,na,0.5656,,,,,
JVASP-90840,ScFeC2,-0.36047,0.0,0.0,0.0063,,,,,
JVASP-48958,Li4MnF8,-2.81156,1.288,na,0.1325,,,,,
JVASP-67202,ZrBeTl,0.19403,0.0,na,0.3331,,,,,
JVASP-73869,KBeNi2,0.32073,0.0,na,0.5566,,,,,
JVASP-68364,LiBe2Bi,0.42678,0.0,na,0.6257,,,,,
JVASP-67742,NaMnBe2,0.56157,0.0,na,0.741,,,,,
JVASP-67362,LiBeZn,0.04156,0.0,na,0.2103,,,,,
JVASP-67049,Be2ZnGe,0.33112,0.0,na,0.3311,,,,,
JVASP-48011,Li4Mn2Cr3Co3O16,-1.87352,0.0,na,0.0478,,,,,
JVASP-67538,ScBeV,0.16627,0.0,0.0,0.2674,,,,,
JVASP-67973,BeV2Cd,0.42728,0.0,na,0.5056,,,,,
JVASP-61948,Al3Co20B6,-0.2758,0.0,na,0.0059,,,,,
JVASP-67449,BeVPb,0.57787,0.0,na,0.679,,,,,
JVASP-67661,SrBeCu,0.21654,0.0,na,0.3675,,,,,
JVASP-86811,Yb2CdSb2,-0.84689,0.033,na,0.0,,,,,
JVASP-43315,Li2Ni2SnO6,-1.48848,0.183,na,0.0778,,,,,
JVASP-67276,Be2NiPt,-0.4129,0.0,0.0,0.2185,,,,,
JVASP-20062,PrPt2,-1.06048,0.0,0.0,0.0,,,,,
JVASP-68715,Be2NbW,-0.01169,0.0,na,0.3161,,,,,
JVASP-73398,Be2RuSe,-0.01222,0.0,na,0.5878,,,,,
JVASP-68116,BeV2Pt,-0.1997,0.0,0.0,0.2688,,,,,
JVASP-66970,BeSiCl,-0.01954,0.0,0.0,0.7283,,,,,
JVASP-48425,Mn3O2F4,-2.1868,0.0,na,0.0,,,,,
JVASP-68774,Be2MoW,0.16077,0.0,0.0,0.5209,,,,,
JVASP-66043,Ba4CuIr,0.9311,0.0,na,0.9739,,,,,
JVASP-14260,RbVP2S7,-0.65173,0.024,0.0,0.0027,,,,,
JVASP-67819,BeGaSb,0.44216,0.0,0.0,0.5412,,,,,
JVASP-63157,TbInAu,-0.77246,0.0,na,0.0001,,,,,
JVASP-62989,KBe2BO3F2,-3.03766,6.556,9.836,0.0259,,,,,
JVASP-68541,Na2BeFe,0.37908,0.0,0.0,0.4865,,,,,
JVASP-43340,Li4Fe3Ni2Sn3O16,-1.5783,0.004,na,0.1243,,,,,
JVASP-65360,BaNbCr2,1.37181,0.0,0.0,1.3968,,,,,
JVASP-43226,TiMnO4,-2.47516,0.488,na,0.0589,,,,,
JVASP-90743,SmCoAsO,-1.92987,0.0,na,0.0,,,,,
JVASP-48338,Li2Mn4O5F3,-2.1312,0.379,na,0.0,,,,,
JVASP-49844,NdO,-2.96362,0.0,na,0.023,,,,,
JVASP-66728,TaBe2V,0.06555,0.0,na,0.2831,,,,,
JVASP-63256,K3NdAs2S8,-1.00093,1.52,na,0.0018,,,,,
JVASP-72904,CaBe2Si,0.31378,0.0,na,0.6397,,,,,
JVASP-85901,Tb2Al3Si2,-0.545,0.0,na,0.0,,,,,
JVASP-68237,BeCdFe2,0.32922,0.0,0.0,0.4339,,,,,
JVASP-67051,NaTaBe,0.49816,0.0,na,0.6361,,,,,
JVASP-68846,NaY2Be,0.45772,0.0,0.0,0.4608,,,,,
JVASP-67623,SrScBe,0.24298,0.0,0.0,0.3267,,,,,
JVASP-73977,BeTc2Mo,0.04848,0.0,0.0,0.1589,,,,,
JVASP-67705,KHfBe,0.57917,0.0,0.0,0.6933,,,,,
JVASP-63666,Al5BO9,-3.19087,5.015,na,0.004,,,,,
JVASP-67541,BeTlRu,0.54911,0.0,na,0.729,,,,,
JVASP-68481,Be2GaOs,-0.12574,0.0,0.0,0.0,,,,,
JVASP-15482,YbSi2Pt2,-0.92479,0.0,0.0,0.0,,,,,
JVASP-43466,Li2Fe3SbO8,-1.65317,0.059,0.0,0.0406,,,,,
JVASP-74055,Mn2BeFe,-0.03782,0.0,na,0.0713,,,,,
JVASP-73427,Be2ReRu,-0.15157,0.0,na,0.1372,,,,,
JVASP-61967,LaGeAu,-0.91396,0.0,na,0.001,,,,,
JVASP-86307,LiSi,-0.06439,0.157,0.469,0.1312,,,,,
JVASP-68717,ZrBeBr,-0.08827,0.0,0.372,0.6927,,,,,
JVASP-90508,SiO2,-2.75014,5.666,na,0.1511,,,,,
JVASP-67366,MnBe2Co,-0.14728,0.0,na,0.0999,,,,,
JVASP-91685,EuGa,-0.58355,0.0,na,0.0,,,,,
JVASP-89176,TaTe4I,-0.25608,0.464,na,0.0,,,,,
JVASP-67862,LaBeRh2,-0.24196,0.0,na,0.4581,,,,,
JVASP-66797,MgBeZn,0.16919,0.0,na,0.2466,,,,,
JVASP-43117,Mn3Cr2Sb3O16,-1.62265,0.051,na,0.1449,,,,,
JVASP-67585,LiBeFe,0.11016,0.0,na,0.2456,,,,,
JVASP-68117,BeZn2Re,0.20758,0.0,na,0.342,,,,,
JVASP-90287,UCoSn,-0.17009,0.0,na,0.0638,,,,,
JVASP-68911,Y2BeCl,-0.26151,0.0,0.0,0.5595,,,,,
JVASP-18741,MgNi2Sb,-0.22472,0.0,0.0,0.101,,,,,
JVASP-67130,Be2ReIr,-0.22816,0.0,na,0.107,,,,,
JVASP-92178,ZrSn,-0.38848,0.0,0.0,0.1087,,,,,
JVASP-66904,HfBeZn,-0.03339,0.0,na,0.2039,,,,,
JVASP-68598,Ca2BeBr,-0.29304,0.0,na,0.563,,,,,
JVASP-87011,LaB2C2,-0.38443,0.0,na,0.1324,,,,,
JVASP-68298,NaBeSi2,0.57413,0.0,0.0,0.5978,,,,,
JVASP-68421,LiBePb2,0.2714,0.0,na,0.421,,,,,
JVASP-67451,LiTaBe2,0.12658,0.0,na,0.3203,,,,,
JVASP-66974,NaTaBe2,0.4045,0.0,na,0.601,,,,,
JVASP-90568,Mg3Zn,-0.02333,0.0,na,0.0311,,,,,
JVASP-67910,YBeZn2,-0.12578,0.0,na,0.1848,,,,,
JVASP-63343,ScB12,-0.23563,0.0,na,0.0041,,,,,
JVASP-60751,P2WO8,-2.21357,2.025,2.995,0.0,,,,,
JVASP-63819,LiB6H10O2,-0.55636,5.727,na,0.0469,,,,,
JVASP-68652,BeBiBr2,0.41835,0.0,0.0,1.22,,,,,
JVASP-73870,TaBeV2,0.01341,0.0,0.0,0.1621,,,,,
JVASP-89528,HoB4,-0.6161,0.0,na,0.0,,,,,
JVASP-66044,Ba4HfTc,1.47259,0.0,0.0,1.6364,,,,,
JVASP-67204,YTiBe,0.41821,0.0,na,0.5334,,,,,
JVASP-61455,Sc6Al16Ru7,-0.6664,0.0,na,0.0076,,,,,
JVASP-68780,CaBe2Nb,0.21959,0.0,na,0.4124,,,,,
JVASP-65361,BaSc2Si,0.09241,0.0,na,0.6064,,,,,
JVASP-92231,Ta3Au,-0.03907,0.0,na,0.0086,,,,,
JVASP-86483,TbSi2Ni,-0.79799,0.0,na,0.0,,,,,
JVASP-86765,K2FeCuC6N6,-0.06701,0.438,na,0.1671,,,,,
JVASP-43369,AgPO3,-1.60073,2.138,3.321,0.0,,,,,
JVASP-90887,CaIn2Ni,-0.41546,0.0,na,0.0,,,,,
JVASP-1792,CuRhO2,-0.79128,0.906,na,0.0,,,,,
JVASP-91821,RbMg6W,0.38071,0.0,na,0.4541,,,,,
JVASP-74151,CaMn2Be,0.26948,0.0,na,0.3619,,,,,
JVASP-68544,BeNbCd,0.40579,0.0,na,0.5348,,,,,
JVASP-68039,LiTi2Be,0.13849,0.0,na,0.2251,,,,,
JVASP-68365,Be2InSi,0.59704,0.0,na,0.5995,,,,,
JVASP-14880,NaHg,-0.16653,0.0,na,0.0111,,,,,
JVASP-91877,CaMg7,-0.00708,0.0,na,0.0461,,,,,
JVASP-72918,MgBe2Br,0.61783,0.0,na,1.2244,,,,,
JVASP-88448,Ce6P17Pd6,-0.84569,0.0,na,0.0484,,,,,
JVASP-18659,CeMg2Cu,0.13199,0.0,na,0.2452,,,,,
JVASP-86079,K2Ga3,-0.22092,0.213,na,0.0,,,,,
JVASP-86646,DyInRh,-0.77622,0.0,na,0.0,,,,,
JVASP-67821,YBe2Te,0.09061,0.0,na,0.7787,,,,,
JVASP-62555,TbReB4,-0.58526,0.0,na,0.0,,,,,
JVASP-4298,SN,0.65746,2.721,na,0.6739,,,,,
JVASP-67706,MgBeRe2,0.04459,0.0,0.0,0.179,,,,,
JVASP-89937,GeN2F6,-0.33183,0.006,na,0.9797,,,,,
JVASP-90156,PdN2Cl6,1.08823,0.0,na,1.2527,,,,,
JVASP-67277,HfBeV,0.09948,0.0,na,0.2107,,,,,
JVASP-1717,TbRbSe2,-1.8439,1.914,2.96,0.0,,,,,
JVASP-73978,BeV2Pd,-0.13866,0.0,na,0.1415,,,,,
JVASP-43562,Li2FeO2F,-2.0926,0.052,na,0.163,,,,,
JVASP-63504,KAuF6,-1.60334,1.999,2.14,0.0,,,,,
JVASP-67786,MnBeTl,0.55479,0.0,0.0,0.6724,,,,,
JVASP-67743,MgBeRu2,0.06263,0.0,0.0,0.2625,,,,,
JVASP-43658,Li2CrPCO7,-2.11483,1.658,na,0.0,,,,,
JVASP-68185,MnBeNi2,-0.11784,0.0,na,0.1461,,,,,
JVASP-63347,USnAu,-0.23766,0.0,na,0.0293,,,,,
JVASP-43976,Li2MnF4,-2.80327,2.803,na,0.0493,,,,,
JVASP-22597,CsNiF3,-2.10322,0.0,na,0.003,,,,,
JVASP-46299,Li4Ni3BiO8,-1.38749,0.0,na,0.1464,,,,,
JVASP-87875,TiTl3F6,-2.50467,0.0,na,0.1006,,,,,
JVASP-15265,ErBRh3,-0.81833,0.0,0.0,0.0,,,,,
JVASP-66730,SrScBe,0.49927,0.0,na,0.583,,,,,
JVASP-88773,Ba2NbCrO6,-2.90192,0.173,na,0.0,,,,,
JVASP-86131,Al5Mo,-0.23124,0.0,na,0.0,,,,,
JVASP-67206,BeRePb,0.57873,0.0,na,0.7579,,,,,
JVASP-85621,MnV2O4,-2.16088,0.0,na,0.0547,,,,,
JVASP-67974,Li2BeBi,-0.01293,0.0,na,0.3759,,,,,
JVASP-68914,BeBiTe2,0.57453,0.0,0.0,0.8863,,,,,
JVASP-68238,BeInIr2,0.16012,0.0,na,0.3651,,,,,
JVASP-61968,AuN2,0.8074,0.0,na,0.8177,,,,,
JVASP-62993,Li3AuO3,-1.55911,2.017,2.419,0.0,,,,,
JVASP-90672,Ti2SiC,-0.81186,0.0,na,0.0167,,,,,
JVASP-91638,Mg3Au,-0.43332,0.0,na,0.0,,,,,
JVASP-66045,Ba4TcW,1.75109,0.0,0.0,1.8439,,,,,
JVASP-88271,MgSiO3,-3.01109,4.96,na,0.016,,,,,
JVASP-68483,Zr2BeP,-0.43108,0.0,na,0.3664,,,,,
JVASP-90093,YInPd,-0.85209,0.0,na,0.0,,,,,
JVASP-50345,BaMgO2,-2.81832,3.392,5.413,0.0861,,,,,
JVASP-86182,Ag2Se,-0.06499,0.074,0.145,0.0,,,,,
JVASP-14854,CeCd,-0.13934,0.0,na,0.072,,,,,
JVASP-66975,BeGeBi,0.47709,0.0,na,0.4771,,,,,
JVASP-42262,Li4V3FeO10,-2.33611,0.005,na,0.0739,,,,,
JVASP-67664,BeGaAg,0.216,0.0,na,0.2258,,,,,
JVASP-68848,Be2CdGa,0.45499,0.0,na,0.4575,,,,,
JVASP-73874,BeGeW2,-0.10815,0.0,na,0.2069,,,,,
JVASP-68781,Na2TiBe2,0.65988,0.0,na,0.803,,,,,
JVASP-74056,BeV2Tc,-0.15259,0.0,0.0,0.1069,,,,,
JVASP-91589,CeSb2Pd,-0.81987,0.0,na,0.0,,,,,
JVASP-88967,Ho3Al5O12,-3.57957,4.728,na,0.0,,,,,
JVASP-62662,NaBH8N2,-0.21964,5.388,7.675,0.0,,,,,
JVASP-67915,TaBeZn2,0.02196,0.0,na,0.1659,,,,,
JVASP-68654,Be2PBr,-0.02412,0.0,na,0.5058,,,,,
JVASP-14793,GaAg2,-0.01968,0.0,na,0.0,,,,,
JVASP-68719,BeCuPb2,0.57433,0.0,na,0.6289,,,,,
JVASP-72931,Be2TcBr,0.44512,0.0,na,0.9691,,,,,
JVASP-63820,ZrNi4As2,-0.51335,0.0,na,0.0,,,,,
JVASP-65362,BaScNi2,0.06453,0.0,na,0.4891,,,,,
JVASP-67368,Be2CrIr,-0.22724,0.0,0.0,0.1083,,,,,
JVASP-68122,CaBeCd2,0.04898,0.0,na,0.3602,,,,,
JVASP-91777,NpTe3,-0.6275,0.0,na,0.0,,,,,
JVASP-14557,NbRh3,-0.51316,0.0,0.0,0.0082,,,,,
JVASP-67052,BeSnBi,0.43801,0.0,0.0,0.438,,,,,
JVASP-85829,BaN2,-0.67465,0.0,na,0.0,,,,,
JVASP-63159,LaSiBO5,-3.19389,5.286,na,0.0134,,,,,
JVASP-67624,BeInOs2,0.19701,0.0,0.0,0.1983,,,,,
JVASP-66907,Be2SiCl,0.26464,0.0,na,0.8255,,,,,
JVASP-74153,BeCrTc2,0.00356,0.0,na,0.0857,,,,,
JVASP-63266,UMnB4,-0.56844,0.0,na,0.0156,,,,,
JVASP-67863,BeTlSe,-0.0337,0.0,0.0,0.5865,,,,,
JVASP-86883,Ce6B2C3Br3,-0.90221,0.0,na,0.0,,,,,
JVASP-86255,BiPd,-0.28157,0.0,na,0.0128,,,,,
JVASP-88679,AuCl2,-0.24143,0.742,na,0.0,,,,,
JVASP-73473,NaTiBe2,0.59277,0.0,0.0,0.7686,,,,,
JVASP-85961,MnClO3,-1.00917,1.721,2.095,0.0761,,,,,
JVASP-85754,AlSeCl7,-0.7854,0.084,0.0,0.0,,,,,
JVASP-86707,UMn2Si2,-0.3253,0.0,na,0.0,,,,,
JVASP-90797,MnGe,-0.03461,0.0,na,0.0,,,,,
JVASP-28504,Te4Mo2WSe2,-0.26219,0.307,na,0.1252,,,,,
JVASP-87984,SrSnO3,-2.43758,1.951,na,0.0,,,,,
JVASP-67543,LiBeSi,0.18847,0.0,0.0,0.3188,,,,,
JVASP-68599,BeNbTl2,0.59974,0.0,na,0.694,,,,,
JVASP-85693,Ca5Ge3H,-0.73955,0.0,na,0.0,,,,,
JVASP-18515,Zr2CoP,-0.9683,0.0,na,0.0,,,,,
JVASP-62848,Sr2CuB2O6,-2.59941,0.579,na,0.0075,,,,,
JVASP-63506,HoNi4Au,-0.44248,0.0,na,0.0001,,,,,
JVASP-91977,NiSnF6,-2.25184,1.175,na,0.0,,,,,
JVASP-68547,Be2InMo,0.31015,0.0,na,0.5324,,,,,
JVASP-73979,CaBeRu2,0.09464,0.0,na,0.2337,,,,,
JVASP-67586,BeTlIn,0.50964,0.0,na,0.5114,,,,,
JVASP-88071,PrPH5CO7,-1.71002,3.819,na,0.1156,,,,,
JVASP-90841,SmCuSb2,-0.65601,0.0,na,0.0,,,,,
JVASP-42605,Li4CoO3F,-1.97682,0.739,na,0.1824,,,,,
JVASP-90417,ICl3,-0.18571,1.455,3.148,0.0002,,,,,
JVASP-86942,LaPd3,-0.8402,0.0,na,0.0243,,,,,
JVASP-67456,MgZrBe2,0.12113,0.0,0.0,0.2653,,,,,
JVASP-90211,UGaRh,-0.55349,0.0,na,0.0,,,,,
JVASP-66047,Ba2CoBr,-0.41103,0.0,0.0,0.475,,,,,
JVASP-68302,BeTe2Br,0.23762,0.0,na,0.7442,,,,,
JVASP-43396,SrNb3NO7,-2.58805,1.514,1.847,0.1134,,,,,
JVASP-42757,Li5Fe7O3F13,-2.16849,0.0,na,0.1089,,,,,
JVASP-62999,SrFeAsF,-1.93742,0.0,na,0.0001,,,,,
JVASP-67787,Be2HgTe,0.83778,0.0,na,1.0493,,,,,
JVASP-90029,DyPdPb,-0.73143,0.0,na,0.0043,,,,,
JVASP-86813,MnBiSe2I,-0.38745,0.593,na,0.016,,,,,
JVASP-90746,Ge,0.00956,0.0,na,0.0,,,,,
JVASP-68486,MgMnBe,0.45562,0.0,na,0.5732,,,,,
JVASP-68043,BeCoPd2,-0.03357,0.0,0.0,0.3385,,,,,
JVASP-68915,TaBeSb,0.53957,0.0,0.0,0.7291,,,,,
JVASP-62561,ZrBRh3,-0.73709,0.0,0.0,0.0001,,,,,
JVASP-63350,ErCo2B2,-0.61016,0.0,0.0,0.0,,,,,
JVASP-63166,SmSnAu,-0.85331,0.0,na,0.0195,,,,,
JVASP-74059,BeIrW2,-0.26316,0.0,na,0.2169,,,,,
JVASP-66799,BeCrCd,0.50553,0.0,na,0.6135,,,,,
JVASP-67370,NaBeV,0.53384,0.0,na,0.6391,,,,,
JVASP-89178,Na4IrO4,-1.43503,0.342,na,0.0,,,,,
JVASP-61986,ThAl3,-0.41957,0.0,na,0.0,,,,,
JVASP-68367,Zr2Be2Tl,0.35361,0.0,na,0.5205,,,,,
JVASP-63672,Li4Be3As3ClO12,-2.09761,4.572,na,0.0,,,,,
JVASP-68422,BeGaPb2,0.49425,0.0,na,0.4943,,,,,
JVASP-68657,BeSbTe2,0.56995,0.0,na,0.836,,,,,
JVASP-68721,Be2InRu,-0.0398,0.0,na,0.2313,,,,,
JVASP-67212,Be2TeIr,0.16528,0.0,na,0.565,,,,,
JVASP-92179,SrMg3,-0.04566,0.0,na,0.0748,,,,,
JVASP-90611,YFeGe2,-0.50335,0.0,na,0.0561,,,,,
JVASP-73493,Be2CdTc,0.27943,0.0,na,0.4462,,,,,
JVASP-67707,BeNiSe,0.18236,0.0,na,0.8026,,,,,
JVASP-67279,LiBeFe,0.13186,0.0,na,0.2673,,,,,
JVASP-67131,MnBeNi,-0.13778,0.0,na,0.1739,,,,,
JVASP-66048,BaNbBi,1.05791,0.0,na,1.6821,,,,,
JVASP-63821,Na2BiAu,-0.40778,0.389,na,0.0,,,,,
JVASP-48896,Li3VCr3O8,-2.2606,0.0,na,0.0591,,,,,
JVASP-68600,Be2VSi,0.27373,0.0,na,0.5122,,,,,
JVASP-43806,V5O12,-2.38143,0.119,2.088,0.053,,,,,
JVASP-67744,ZrBeHg,0.10265,0.0,0.0,0.2441,,,,,
JVASP-66732,ScBe2Rh,-0.40566,0.0,0.0,0.1801,,,,,
JVASP-67977,BeFeHg2,0.47144,0.0,0.0,0.5728,,,,,
JVASP-48708,Na2CoO3,-1.29996,0.254,na,0.1928,,,,,
JVASP-86418,LiPN2,-0.90765,4.019,na,0.0,,,,,
JVASP-73980,CaBeGe2,0.01197,0.0,na,0.4312,,,,,
JVASP-68306,CaMgBe,0.22434,0.0,na,0.3457,,,,,
JVASP-74157,CaBeCu2,0.07957,0.0,na,0.2493,,,,,
JVASP-91926,Tl2SnHgSe4,-0.32005,0.726,na,0.0,,,,,
JVASP-68916,BeNbRe,0.28654,0.0,na,0.589,,,,,
JVASP-63178,Co2As,-0.08065,0.0,na,0.1042,,,,,
JVASP-67917,LiBeV2,0.35642,0.0,0.0,0.4325,,,,,
JVASP-68369,KBe2Te,0.55025,0.0,na,1.0741,,,,,
JVASP-86537,VS2N3Cl2,-0.29816,0.649,na,0.2673,,,,,
JVASP-48243,VCrO4,-2.33787,0.0,na,0.0133,,,,,
JVASP-68853,SrTaBe2,0.3371,0.0,na,0.5306,,,,,
JVASP-63509,HoB4Rh4,-0.56833,0.0,na,0.0068,,,,,
JVASP-63353,CeSbAu,-0.72426,0.0,na,0.0924,,,,,
JVASP-67056,BeCuSb,0.45342,0.0,0.0,0.5262,,,,,
JVASP-66049,BaInCl,-0.706,0.0,na,0.922,,,,,
JVASP-66977,MnBe2Te,0.48133,0.0,0.0,0.781,,,,,
JVASP-68488,NaBe2Sn,0.58166,0.0,na,0.6862,,,,,
JVASP-62562,Pr4Fe3B6,-0.21098,0.0,na,0.1353,,,,,
JVASP-67822,KBeTc,0.72561,0.0,na,0.838,,,,,
JVASP-68658,Be2NbCd,0.20156,0.0,na,0.3926,,,,,
JVASP-63679,Er3Sb4Au3,-0.78846,0.613,0.659,0.0068,,,,,
JVASP-18579,Ho6FeBi2,-0.44869,0.0,0.0,0.0051,,,,,
JVASP-73523,Be2IrOs,-0.29532,0.0,na,0.014,,,,,
JVASP-15597,ZrVSi,-0.70883,0.0,na,0.0,,,,,
JVASP-63267,B2Mo,-0.24573,0.0,na,0.1613,,,,,
JVASP-67709,BeTc2Br,0.30146,0.0,na,0.7433,,,,,
JVASP-68240,BeCrRh2,-0.13172,0.0,0.0,0.1957,,,,,
JVASP-68782,Be2GaFe2,0.25439,0.0,na,0.4813,,,,,
JVASP-68548,BeSn2Ge,0.51241,0.0,na,0.5124,,,,,
JVASP-3558,Rb2MnCl4,-1.68452,0.995,na,0.0,,,,,
JVASP-67458,BePSe,0.28026,0.0,na,0.9005,,,,,
JVASP-67588,ScBeRh,-0.61358,0.0,0.0,0.1339,,,,,
JVASP-67665,BeInHg,0.52395,0.0,na,0.5257,,,,,
JVASP-66910,TiBe2Sb,0.27898,0.0,0.0,0.6032,,,,,
JVASP-73875,BeCdCo2,0.1113,0.0,0.0,0.2747,,,,,
JVASP-68126,BeP2Os,0.47038,0.0,0.0,0.8599,,,,,
JVASP-67625,BeTeIr,0.09845,0.0,0.0,0.437,,,,,
JVASP-72942,MgBe2Pd,-0.20774,0.0,0.0,0.2177,,,,,
JVASP-63826,Ag3Te2Au,-0.03746,0.128,na,0.0152,,,,,
JVASP-68186,BePdRh2,-0.1048,0.0,0.0,0.2326,,,,,
JVASP-67545,BeNiIr,-0.27628,0.0,0.0,0.1102,,,,,
JVASP-67864,KBeCd,0.39983,0.0,na,0.4402,,,,,
JVASP-68423,NaTaBe,0.62464,0.0,na,0.7626,,,,,
JVASP-89942,Hf4CuSi4,-0.67446,0.0,na,0.0,,,,,
JVASP-66738,BeHgIr,0.04935,0.0,na,0.255,,,,,
JVASP-22709,MgAs4,-0.2467,0.84,1.382,0.0,,,,,
JVASP-68603,MnBeCl,0.14485,0.0,na,0.9499,,,,,
JVASP-28375,HoSI,-1.89487,2.57,3.339,0.0,,,,,
JVASP-73983,BeCrMo2,0.13094,0.0,na,0.2414,,,,,
JVASP-68372,ScBeSn2,-0.09492,0.0,na,0.2628,,,,,
JVASP-74060,BeGeMo2,0.03916,0.0,na,0.2197,,,,,
JVASP-66050,Ba4TcGe,1.08582,0.0,na,1.3759,,,,,
JVASP-67061,ZrBe2Hg,0.16089,0.0,na,0.3305,,,,,
JVASP-85416,Ag2S,-0.07359,1.11,na,0.002,,,,,
JVASP-91823,Mg3WO4,-2.15536,0.0,na,0.5809,,,,,
JVASP-91548,HC,0.1523,5.13,6.41,0.2854,,,,,
JVASP-63355,BaAsAu,-0.98894,0.0,na,0.0001,,,,,
JVASP-67371,BePIr,0.04288,0.0,0.0,0.6041,,,,,
JVASP-90569,Mg3Zn,-0.0503,0.0,na,0.0042,,,,,
JVASP-67745,HfBePt,-0.74835,0.0,na,0.1284,,,,,
JVASP-90096,V5Se4,-0.63261,0.0,na,0.0,,,,,
JVASP-90888,TmZnSn2,-0.41417,0.0,na,0.0063,,,,,
JVASP-88449,CuBi2O4,-1.18556,0.0,na,0.0,,,,,
JVASP-75449,AsPSe,0.57005,0.0,na,0.6889,,,,,
JVASP-68044,Hf2BeCu,-0.03845,0.0,0.0,0.1723,,,,,
JVASP-68308,BeInSe,-0.30582,0.0,na,0.3162,,,,,
JVASP-15483,ScCo3B2,-0.5604,0.0,na,0.0,,,,,
JVASP-67920,Sc2BeRu,-0.16326,0.0,na,0.255,,,,,
JVASP-67282,Be2CrHg,0.45679,0.0,0.0,0.6138,,,,,
JVASP-67213,MgBeRh,-0.46798,0.0,0.0,0.0,,,,,
JVASP-73884,BeFe2Cl,0.22372,0.0,na,0.8354,,,,,
JVASP-91878,YMg7,-0.00816,0.0,na,0.0363,,,,,
JVASP-5833,As8S9,-0.15341,1.504,2.307,0.0001,,,,,
JVASP-89538,HgH8C2Br3N,-0.31092,2.45,na,0.0317,,,,,
JVASP-68424,SrBeCl,-0.35909,0.0,1.512,0.9824,,,,,
JVASP-68854,BeGaOs,0.19588,0.0,0.0,0.334,,,,,
JVASP-85343,Eu2CN2Cl2,-1.34363,0.0,0.0,0.0,,,,,
JVASP-87878,Ag2SeO3,-0.5504,1.735,na,0.0,,,,,
JVASP-92232,Mg3Pt,-0.62548,0.0,na,0.0,,,,,
JVASP-73553,Be2ZnRh,-0.32382,0.0,0.0,0.0617,,,,,
JVASP-18660,CeHg2,-0.20867,0.0,na,0.0,,,,,
JVASP-68723,BeZn2Cl,0.32852,0.0,0.0,0.8882,,,,,
JVASP-90418,CuBr2N6,2.43817,0.0,na,2.5577,,,,,
JVASP-85831,ZrMn2,-0.1944,0.0,na,0.0112,,,,,
JVASP-14794,CrC,0.0961,0.0,0.0,0.2227,,,,,
JVASP-72962,ScBe2Ge,0.05178,0.0,na,0.518,,,,,
JVASP-85902,CuSe2O5,-0.75274,0.0,na,0.0,,,,,
JVASP-86080,Tb4Ga12Pt,-0.62322,0.0,na,0.0,,,,,
JVASP-91590,LiSbS2,-0.77815,0.298,na,0.0037,,,,,
JVASP-67978,BeSi2Ir,0.10969,0.0,0.0,0.4676,,,,,
JVASP-1720,RbHoSe2,-1.83936,1.942,2.969,0.0,,,,,
JVASP-42341,Ca3WO6,-3.11874,3.328,4.271,0.0,,,,,
JVASP-62849,YB4Os,-0.59317,0.0,na,0.0,,,,,
JVASP-88978,CaB2C2,-0.28338,0.0,na,0.1625,,,,,
JVASP-67549,Be2CdW,0.23855,0.0,na,0.4535,,,,,
JVASP-68786,Na2BeMo,0.54327,0.0,na,0.6598,,,,,
JVASP-66911,BeReNi,0.0789,0.0,na,0.3943,,,,,
JVASP-66809,MgBeIn,0.31578,0.0,na,0.3919,,,,,
JVASP-48959,Li3FeB2O6,-2.26805,1.143,na,0.0436,,,,,
JVASP-68191,BeNiP2,0.27219,0.0,na,0.6114,,,,,
JVASP-62678,B2O3,-2.53251,6.541,9.188,0.0047,,,,,
JVASP-43264,LiBi3I2O4,-1.34164,1.939,na,0.0,,,,,
JVASP-90289,Nb5Se4,-0.66752,0.0,na,0.0173,,,,,
JVASP-63828,DyCrB4,-0.67833,0.26,na,0.0,,,,,
JVASP-87081,Hf2Ni,-0.36386,0.0,0.0,0.0085,,,,,
JVASP-88783,Tc2As3,-0.23078,0.0,na,0.0,,,,,
JVASP-85756,Ca3In2As4,-0.90183,0.212,na,0.0,,,,,
JVASP-68659,TiBeBi,0.55061,0.0,0.0,0.7126,,,,,
JVASP-63271,KAuC2N2,-0.14138,2.436,2.976,0.1192,,,,,
JVASP-67866,BeZn2In,0.29305,0.0,na,0.2944,,,,,
JVASP-86183,Lu5NiPb3,-0.51184,0.0,na,0.0,,,,,
JVASP-75451,YCuAs,-0.63243,0.0,na,0.4633,,,,,
JVASP-91639,USnPt2,-0.58261,0.0,na,0.0758,,,,,
JVASP-90673,ZrGa3,-0.46006,0.0,na,0.0,,,,,
JVASP-90216,ThAlPt,-1.12082,0.0,na,0.0,,,,,
JVASP-85502,LaH3O3,-2.04015,3.881,na,0.0,,,,,
JVASP-91729,CeMnAsO,-1.83763,0.0,na,0.0,,,,,
JVASP-86133,Tb2B2C3,-0.40441,0.0,na,0.0993,,,,,
JVASP-73986,ScBeTc2,-0.17749,0.0,na,0.1222,,,,,
JVASP-67134,MnBeCd,0.27536,0.0,na,0.3962,,,,,
JVASP-68604,BeTe2Pt,0.39629,0.0,na,0.8155,,,,,
JVASP-74061,LiBeTl2,0.29117,0.0,na,0.4135,,,,,
JVASP-67789,BeSiCl,0.30152,0.0,na,1.0493,,,,,
JVASP-67063,BeSnCl,-0.28746,0.0,na,0.4588,,,,,
JVASP-90513,Eu2H6Ru,-0.51453,0.0,na,0.0,,,,,
JVASP-67372,Be2FePd,-0.14852,0.0,0.0,0.2329,,,,,
JVASP-90842,FeSe,-0.03684,0.0,na,0.2542,,,,,
JVASP-91686,InSe,-0.50597,0.163,1.359,0.0003,,,,,
JVASP-66980,BeNbIn,0.24342,0.0,0.0,0.3709,,,,,
JVASP-48017,FeOF,-1.72093,0.0,0.0,0.12,,,,,
JVASP-86256,Ti4MnBi2,-0.27557,0.0,na,0.0,,,,,
JVASP-63362,NdAl3,-0.47928,0.0,na,0.0,,,,,
JVASP-88680,Ba2LaNbO6,-3.22698,3.119,na,0.0,,,,,
JVASP-86766,Be12W,-0.09684,0.0,na,0.0,,,,,
JVASP-68919,Mg2BeBr,0.16317,0.0,na,0.7656,,,,,
JVASP-68549,Zr2BePb,0.06836,0.0,0.0,0.3196,,,,,
JVASP-86814,BaAg2SnSe4,-0.74824,0.111,na,0.0,,,,,
JVASP-13915,H2SeO4,-0.68037,3.401,na,0.0628,,,,,
JVASP-67823,BeInGe,0.43172,0.0,na,0.4335,,,,,
JVASP-68490,K2Be2Co,0.9551,0.0,0.0,1.1563,,,,,
JVASP-74164,BeV2Cr,0.00597,0.0,0.0,0.1305,,,,,
JVASP-67666,Ti2BeSb,-0.04342,0.0,0.0,0.3548,,,,,
JVASP-90157,ErZnNi,-0.53463,0.0,na,0.0,,,,,
JVASP-63514,SrFeAsF,-1.93755,0.0,na,0.0,,,,,
JVASP-68376,Be2NiBi,0.35952,0.0,na,0.6172,,,,,
JVASP-48426,Mn6O5F7,-2.14342,0.0,na,0.0,,,,,
JVASP-68856,MgBeTe,-0.05745,0.0,na,0.5772,,,,,
JVASP-68045,LaTa2Be,0.52511,0.0,na,0.633,,,,,
JVASP-63006,MgB2C2,-0.2349,1.445,2.404,0.0,,,,,
JVASP-67283,Be2FeHg,0.38224,0.0,0.0,0.584,,,,,
JVASP-72972,TaBe2Rh,-0.21341,0.574,na,0.2042,,,,,
JVASP-21214,H,0.00073,8.619,13.581,0.0,,,,,
JVASP-75490,ZrMoAs,0.2237,0.0,0.0,1.0092,,,,,
JVASP-86334,CuS2,-0.19824,0.0,na,0.0015,,,,,
JVASP-68241,MgMn2Be,0.20803,0.0,0.0,0.2962,,,,,
JVASP-43979,Li2MnF4,-2.807,1.979,na,0.0455,,,,,
JVASP-67626,BeTlBi,0.50851,0.0,na,0.525,,,,,
JVASP-75530,NbTc2As,0.18621,0.0,na,0.5091,,,,,
JVASP-67748,LiBeOs2,-0.02652,0.0,na,0.0,,,,,
JVASP-66740,LiBeV,0.19933,0.0,na,0.3008,,,,,
JVASP-22599,HfVF6,-3.25255,0.0,2.082,0.2005,,,,,
JVASP-73555,Be2CrMo,0.09781,0.0,na,0.3187,,,,,
JVASP-86944,SrCd2,-0.40742,0.0,na,0.0,,,,,
JVASP-85695,TiFeH2,-0.27089,0.0,na,0.1086,,,,,
JVASP-92180,Ce3Mg,0.15092,0.0,na,0.1681,,,,,
JVASP-86309,NiAs,-0.25847,0.0,na,0.0,,,,,