jid,formula,formation_energy_per_atom,optb88vdw_bandgap,mbj_bandgap,ehull,spacegroup_number,natoms,volume,bulk_modulus_kv,shear_modulus_gv
JVASP-105232,Pm2CdPb,-0.47236,0.0,0.0,0.0,,,,,
JVASP-13340,Li2TiO3,-2.85572,2.497,na,0.0128,,,,,
JVASP-105448,Mn2CuSb2Pd,0.00018,0.0,na,0.1563,,,,,
JVASP-105094,CoGeAs2,0.02316,0.0,na,0.2508,,,,,
JVASP-106412,K2NaBiBr6,-1.34716,3.076,na,0.0412,,,,,
JVASP-106565,Na3Mg,0.0324,0.0,na,0.0415,,,,,
JVASP-15629,ZrAlNi,-0.67729,0.0,na,0.0,,,,,
JVASP-14094,OsN2,0.3972,0.0,0.0,0.4075,,,,,
JVASP-58188,BaTi4O8,-2.98188,0.0,na,0.2724,,,,,
JVASP-15807,SrZn2Sb2,-0.52103,0.0,na,0.0,,,,,
JVASP-2592,TaTl3S4,-0.7643,2.654,3.203,0.0,,,,,
JVASP-50970,BaSr2I6,-1.75622,3.748,na,0.0693,,,,,
JVASP-107402,K2BiAuBr6,-0.98635,0.229,na,0.0964,,,,,
JVASP-16218,Ti2GeC,-0.84773,0.0,na,0.0,,,,,
JVASP-101886,SnH20C11O6,-0.42432,3.892,na,0.1159,,,,,
JVASP-102731,LaCeF6,-4.30185,0.0,na,0.0,,,,,
JVASP-101998,H2C4O3,-0.50324,2.552,na,0.269,,,,,
JVASP-107018,ZnCu2SnSe2S2,-0.45794,0.081,0.173,0.0212,,,,,
JVASP-104697,Sm2CdSb4,-0.70339,0.0,0.0,0.0064,,,,,
JVASP-12941,ZrTe2Br5,-0.95344,0.98,1.17,0.0,,,,,
JVASP-51203,ReRuBr,1.29881,0.0,na,1.4845,,,,,
JVASP-106923,Rb2AlAuBr6,-1.18931,0.0,na,0.1211,,,,,
JVASP-19898,HoIr2,-0.88265,0.0,0.0,0.0,,,,,
JVASP-5683,GaTeI7,-0.25238,1.556,2.297,0.0,,,,,
JVASP-14174,Cr2GaN,-0.36032,0.0,na,0.0504,,,,,
JVASP-102630,BaGa2H2,-0.5138,0.0,na,0.0,,,,,
JVASP-42211,Ni3OF5,-1.57186,0.016,na,0.0465,,,,,
JVASP-103820,H6C12S2O,0.05498,1.101,na,0.2508,,,,,
JVASP-102843,Li3FeO4,-1.81221,0.0,na,0.0614,,,,,
JVASP-16166,Ba3Al2Si2,-0.4564,0.0,0.0,0.0,,,,,
JVASP-107073,CeGa3Cu,-0.47633,0.0,na,0.0,,,,,
JVASP-105365,Tm2Ga3Ni,-0.66504,0.0,0.0,0.0209,,,,,
JVASP-107638,MgV2O6,-2.63326,2.45,2.833,0.0,,,,,
JVASP-102789,Ce2Ge3Rh,-0.80502,0.0,na,0.0,,,,,
JVASP-15332,Dy6FeSb2,-0.57377,0.0,na,0.0002,,,,,
JVASP-52999,Sr3FeN3,-0.85945,0.0,na,0.0,,,,,
JVASP-106858,NaO2,-0.86933,0.0,na,0.051,,,,,
JVASP-102583,YCdRh2,-0.60142,0.0,0.0,0.0,,,,,
JVASP-107349,Cu2S,-0.15022,0.132,0.502,0.0252,,,,,
JVASP-107462,LiThPt2,-1.02787,0.0,0.0,0.0,,,,,
JVASP-105301,Tl2F3,-1.81374,0.0,na,0.0398,,,,,
JVASP-103753,LiCo2CuO6,-1.12401,0.0,na,0.0682,,,,,
JVASP-1171,Na2S,-1.21153,2.59,4.971,0.0111,,,,,
JVASP-106971,PaBiAu2,-0.36427,0.0,na,0.0,,,,,
JVASP-107142,Rb2LiBiI6,-1.06471,1.912,2.48,0.0282,,,,,
JVASP-16010,Ba2Cd,-0.28169,0.0,0.0,0.0061,,,,,
JVASP-58227,BaMgCo4O8,-1.52629,0.0,na,0.2131,,,,,
JVASP-106696,YTmTe2,-1.29757,0.0,0.0,0.0084,,,,,
JVASP-107242,HoSiOs2C,-0.52154,0.0,0.0,0.0,,,,,
JVASP-28968,Te4MoW3Se2S2,-0.3111,0.221,na,0.2367,,,,,
JVASP-102476,CuSnPd2,-0.36432,0.0,0.0,0.0047,,,,,
JVASP-103886,TiH6C4O4,-0.67942,1.456,2.027,0.4074,,,,,
JVASP-15172,TmCo2Si2,-0.79235,0.0,0.0,0.0,,,,,
JVASP-1447,NaErS2,-2.01727,2.359,3.302,0.0,,,,,
JVASP-105233,Pm3Er,0.00212,0.0,na,0.0033,,,,,
JVASP-104819,Rb2AlAgF6,-3.00504,3.187,5.27,0.0,,,,,
JVASP-13341,Al2CdO4,-2.67653,2.978,4.436,0.0248,,,,,
JVASP-104647,Co4N,0.04007,0.0,na,0.0584,,,,,
JVASP-107299,NdCu4Pd,-0.30901,0.0,na,0.0,,,,,
JVASP-18759,ZrNi4Sn,-0.37499,0.0,na,0.0382,,,,,
JVASP-28895,TeWS,-0.36123,0.151,na,0.2299,,,,,
JVASP-57887,BaCo4O8,-1.2008,0.0,na,0.2756,,,,,
JVASP-27505,NdBO3,-3.25646,4.771,na,0.0,,,,,
JVASP-104593,LiSn3,-0.15766,0.0,0.0,0.0391,,,,,
JVASP-107403,K2AgAsBr6,-0.99162,0.672,na,0.0018,,,,,
JVASP-107574,Be4CoGe,-0.11226,0.0,na,0.0714,,,,,
JVASP-104162,H2C3S2O,0.00688,1.696,na,0.3858,,,,,
JVASP-106413,K3GaI6,-0.98886,0.729,1.744,0.1466,,,,,
JVASP-104972,BaVSe2S,-1.37294,0.0,na,0.0172,,,,,
JVASP-18910,MnAs,-0.17231,0.0,na,0.0333,,,,,
JVASP-2376,ZnSiP2,-0.33862,1.428,2.027,0.0,,,,,
JVASP-2820,KLiS,-1.40079,3.347,4.889,0.0,,,,,
JVASP-104122,H8C13SO,0.01758,1.09,na,0.2186,,,,,
JVASP-105095,Sr4N3,-0.64337,0.0,na,0.0654,,,,,
JVASP-42488,LiFeF3,-2.43066,0.0,na,0.0548,,,,,
JVASP-104699,Sc2Te3,-1.25826,0.041,0.283,0.0329,,,,,
JVASP-106625,Yb3P,-0.55756,0.0,0.0,0.0006,,,,,
JVASP-106519,ErCdPt2,-0.9193,0.0,0.0,0.0,,,,,
JVASP-107189,LiThRh2,-0.69511,0.0,0.0,0.0,,,,,
JVASP-101888,TiH10C6O4,-0.55035,1.478,na,0.2764,,,,,
JVASP-51164,ZnCuMo,0.91569,0.0,na,0.9673,,,,,
JVASP-106748,Sm2Ga3Ni,-0.65046,0.0,0.0,0.0139,,,,,
JVASP-106567,NaGeO3,-1.46384,0.0,na,0.2265,,,,,
JVASP-104756,Be2Co,-0.32961,0.0,na,0.0,,,,,
JVASP-104925,SrAg3Pd2,-0.3676,0.0,0.0,0.0,,,,,
JVASP-104555,AcTh3,0.04676,0.0,na,0.0496,,,,,
JVASP-107463,LuScCo2,-0.38872,0.0,na,0.0,,,,,
JVASP-107143,Rb2NaNdCl6,-2.19141,4.902,na,0.005,,,,,
JVASP-104862,NaTlHg2,-0.08802,0.0,0.0,0.0057,,,,,
JVASP-15219,HfGaNi2,-0.56133,0.0,0.0,0.0188,,,,,
JVASP-52375,HfMn6Sn6,0.00923,0.0,na,0.0737,,,,,
JVASP-106697,YScN2,-2.01655,0.091,na,0.0456,,,,,
JVASP-14281,TbYb2PrS6,-1.95633,1.111,1.987,0.1771,,,,,
JVASP-107689,PmPrZn2,-0.37051,0.0,na,0.0,,,,,
JVASP-18934,HoNi2,-0.5214,0.0,0.0,0.0,,,,,
JVASP-1666,RbHoS2,-2.0395,2.336,3.544,0.0,,,,,
JVASP-102631,RhI3,-0.28998,0.911,1.143,0.0,,,,,
JVASP-105533,CePt4Rh,-0.68883,0.0,na,0.0291,,,,,
JVASP-107019,YbY2Se4,-2.05448,1.07,1.67,0.0,,,,,
JVASP-4513,GaAgP2Se6,-0.18368,0.362,1.269,0.0034,,,,,
JVASP-105235,Pm3Mg,-0.018,0.0,na,0.0364,,,,,
JVASP-102790,Cd2TeSe,-0.49745,0.279,1.362,0.0065,,,,,
JVASP-16110,NdAsPd,-1.18314,0.0,0.0,0.0,,,,,
JVASP-107576,BiPbBrO2,-1.3426,1.767,na,0.0,,,,,
JVASP-103703,Li2MgTl,-0.27026,0.0,0.0,0.0,,,,,
JVASP-105449,Mn2CdTe3,-0.08179,0.0,0.0,0.1485,,,,,
JVASP-104820,TbRb2NaCl6,-2.22414,5.033,na,0.0,,,,,
JVASP-28392,SiO2,-2.59855,5.116,6.243,0.3027,,,,,
JVASP-1555,LiZnN,-0.40311,0.826,na,0.0,,,,,
JVASP-106924,Rb2NaAuF6,-2.26216,0.572,1.807,0.0219,,,,,
JVASP-14910,Ag2O,-0.08248,0.0,na,0.0854,,,,,
JVASP-4002,Na4Br2O,-1.57861,2.19,3.75,0.0259,,,,,
JVASP-19065,Er2Sn2O7,-2.79186,2.879,4.38,0.0,,,,,
JVASP-107640,Ho2TeO2,-3.09586,0.61,na,0.0,,,,,
JVASP-107408,Rb2ErCuCl6,-1.90783,2.525,na,0.0,,,,,
JVASP-107513,TiAl,-0.25334,0.0,0.0,0.1565,,,,,
JVASP-106972,Pm2PdAu,-0.83568,0.0,na,0.0,,,,,
JVASP-2823,K2CuP,-0.44742,1.248,1.777,0.0,,,,,
JVASP-15976,BaMg2Ge2,-0.54482,0.0,na,0.0,,,,,
JVASP-14690,HoAl2,-0.53251,0.0,0.0,0.0,,,,,
JVASP-19118,SeO2,-0.73201,3.415,na,0.0,,,,,
JVASP-105304,DyCr2Si2C,-0.44933,0.0,na,0.0,,,,,
JVASP-102844,ZrMnO3,-2.7259,1.521,na,0.0855,,,,,
JVASP-22607,MoF6,-2.54644,4.151,4.697,0.0,,,,,
JVASP-47525,CoAgO3,-0.59076,0.0,na,0.1481,,,,,
JVASP-44062,Li2Co3NiO8,-1.38493,0.0,na,0.0883,,,,,
JVASP-107350,CoNiP2S6,-0.27242,0.0,na,0.0793,,,,,
JVASP-102675,TaTiCN,-1.2024,0.0,na,0.0702,,,,,
JVASP-104973,Ba2CoNiS4,-1.3241,0.0,na,0.0681,,,,,
JVASP-107244,AlFe3H,-0.15459,0.0,na,0.0,,,,,
JVASP-16077,Te4Pt3,-0.35471,0.0,na,0.0126,,,,,
JVASP-22734,KNbO3,-2.67349,1.526,2.054,0.0059,,,,,
JVASP-101889,TiH8C5O4,-0.6096,2.025,na,0.3255,,,,,
JVASP-2598,Mg3NF3,-2.79107,3.927,6.338,0.0,,,,,
JVASP-106626,Yb3Ag,-0.15708,0.0,na,0.1224,,,,,
JVASP-102477,DyTlRh2,-0.56659,0.0,0.0,0.0233,,,,,
JVASP-104649,Pr2CdAu2,-0.77664,0.0,na,0.0,,,,,
JVASP-1216,Cu2O,-0.52398,0.644,na,0.0,,,,,
JVASP-104597,MgBi5,0.07273,0.0,0.0,0.1469,,,,,
JVASP-102584,YEr3,-0.00288,0.0,na,0.0,,,,,
JVASP-105368,VCr2S4,-0.88328,0.0,na,0.0,,,,,
JVASP-106414,Li3TlF6,-2.34517,3.39,5.602,0.3154,,,,,
JVASP-104821,Rb2NaPrBr6,-1.8784,3.984,na,0.0076,,,,,
JVASP-104123,H4C8S2O,0.06136,1.473,na,0.2996,,,,,