jid,formula,formation_energy_per_atom,optb88vdw_bandgap,mbj_bandgap,ehull,spacegroup_number,natoms,volume,bulk_modulus_kv,shear_modulus_gv
JVASP-2062,TlBiSe2,-0.4699,0.253,0.68,0.0,,,,,
JVASP-43146,Li2Cr3FeO8,-2.01206,0.0,na,0.0554,,,,,
JVASP-51155,TeRuPb,1.06228,0.0,na,1.3487,,,,,
JVASP-18631,MgCuBi,-0.14227,0.0,na,0.0121,,,,,
JVASP-104997,ScHO2,-2.74041,4.011,5.097,0.0322,,,,,
JVASP-103575,KRb2AuCl6,-1.29181,0.0,na,0.1302,,,,,
JVASP-105108,AlZnCu3Se4,-0.32311,0.0,na,0.1755,,,,,
JVASP-100978,HfTc2Mo,-0.30477,0.0,na,0.0,,,,,
JVASP-103982,CdH16C10O4,-0.36152,3.698,na,0.0931,,,,,
JVASP-15093,TbGe2Rh2,-0.85957,0.0,na,0.0,,,,,
JVASP-12179,Ta2Se,-0.44547,0.0,na,0.0,,,,,
JVASP-104774,NaCr2S4,-0.88046,0.0,na,0.0074,,,,,
JVASP-104147,H8C8O,-0.09543,3.155,na,0.1746,,,,,
JVASP-28640,Te2MoW3Se4S2,-0.44692,0.214,na,0.2225,,,,,
JVASP-102604,Ba2DyUO6,-3.52532,0.944,na,0.0,,,,,
JVASP-105485,K4NaCl5,-2.05914,5.05,na,0.0052,,,,,
JVASP-14988,DyCo2,-0.25334,0.0,na,0.0,,,,,
JVASP-3012,NaBeAs,-0.47401,1.499,2.322,0.0,,,,,
JVASP-103358,Pb2BrOF,-1.63421,2.39,3.601,0.0,,,,,
JVASP-18928,NiSe,-0.24294,0.0,na,0.0559,,,,,
JVASP-102700,Nd2Ga7Pd,-0.57519,0.0,0.0,0.0,,,,,
JVASP-101568,HoErIr2,-1.00387,0.0,0.0,0.0,,,,,
JVASP-102758,FeRh,0.12404,0.0,na,0.1259,,,,,
JVASP-18481,PuBrO,-2.78406,0.0,0.0,0.0,,,,,
JVASP-105263,TbPm3,0.01908,0.0,na,0.0205,,,,,
JVASP-15578,Li2PrO3,-2.30304,0.0,na,0.2356,,,,,
JVASP-103869,SnH10C6O4,-0.47354,4.391,na,0.1435,,,,,
JVASP-102507,Li2TlHg,-0.29781,0.0,0.0,0.0044,,,,,
JVASP-15408,UAl3Pd2,-0.57274,0.0,0.0,0.0794,,,,,
JVASP-50057,Tl6S,-0.07488,0.0,na,0.0938,,,,,
JVASP-103625,Pm2AlIn,-0.44986,0.0,0.0,0.0,,,,,
JVASP-104526,Rb2LaAuCl6,-1.7719,2.188,na,0.1465,,,,,
JVASP-42464,Ni2Mo,-0.10411,0.0,0.0,0.0,,,,,
JVASP-102937,ErLuZn2,-0.38593,0.0,na,0.0,,,,,
JVASP-101855,HC2SNO2,-0.15699,0.876,na,0.4892,,,,,
JVASP-102550,PmSmAl2,-0.41073,0.0,0.0,0.0015,,,,,
JVASP-16235,NiB2Mo2,-0.43974,0.0,0.0,0.0,,,,,
JVASP-101248,Fe2CuN2,0.00207,0.0,na,0.2407,,,,,
JVASP-101083,VCuP2S6,-0.43259,0.0,na,0.0332,,,,,
JVASP-101625,ZnInPd2,-0.48555,0.0,0.0,0.0211,,,,,
JVASP-102265,KRb2ScCl6,-2.17371,4.007,na,0.0,,,,,
JVASP-104835,AgPdAu2,-0.08761,0.0,0.0,0.0,,,,,
JVASP-101804,H10C13O,-0.03123,2.889,na,0.1826,,,,,
JVASP-106280,YbGaO3,-2.28488,0.0,na,0.1626,,,,,
JVASP-103085,InSn2Te3,-0.30161,0.0,na,0.02,,,,,
JVASP-101024,TbErIr2,-0.96492,0.0,0.0,0.0,,,,,
JVASP-50202,Zr2N2O,-2.28501,0.017,na,0.0524,,,,,
JVASP-102410,Na2LiErCl6,-1.9953,3.934,na,0.1218,,,,,
JVASP-103673,V6SiGe,-0.36755,0.0,na,0.0,,,,,
JVASP-103279,Mn3Re,0.08414,0.0,na,0.0841,,,,,
JVASP-104946,Mn2SbAs,-0.03686,0.0,0.0,0.066,,,,,
JVASP-101531,CePrO2,-3.04506,0.0,na,0.0,,,,,
JVASP-102809,Al2CrB2Mo,-0.36505,0.0,na,0.0251,,,,,
JVASP-49772,LiZnO2,-1.46785,0.0,na,0.1408,,,,,
JVASP-18672,Ti2Co,0.41132,0.0,0.0,0.7276,,,,,
JVASP-105342,Zn2GaCuSe4,-0.60734,0.382,na,0.0,,,,,
JVASP-101910,ZnH6C5O4,-0.62265,4.569,na,0.1374,,,,,
JVASP-101250,MnO2,-1.7416,0.685,na,0.0633,,,,,
JVASP-104670,YbLu2Se4,-2.0043,1.132,1.987,0.0,,,,,
JVASP-104895,Tb2NiAs2,-1.28361,0.0,0.0,0.0,,,,,
JVASP-19849,HfCr2,-0.11211,0.0,na,0.0,,,,,
JVASP-102760,FeCuTe2,0.0021,0.0,na,0.133,,,,,
JVASP-105489,Hg2TeSe,0.02606,0.0,0.0,0.0421,,,,,
JVASP-3981,K4CdP2,-0.44555,0.88,2.238,0.0,,,,,
JVASP-103021,CeSi3Pt,-0.71891,0.0,0.0,0.0231,,,,,
JVASP-103168,K2ScHgF6,-2.93078,0.0,na,0.1606,,,,,
JVASP-100979,Hf2CuTc,-0.36,0.0,0.0,0.0,,,,,
JVASP-102250,V3O5F,-2.56686,0.0,na,0.0796,,,,,
JVASP-18482,CaCu4As2,-0.35522,0.0,na,0.0226,,,,,
JVASP-103674,Tm2C,-0.41989,0.0,na,0.0,,,,,
JVASP-46240,CoBi2O6,-1.0191,0.0,na,0.1095,,,,,
JVASP-104998,Na3BiF6,-2.58549,4.065,na,0.2134,,,,,
JVASP-101191,GeSb2Te4,-0.01176,0.0,na,0.1133,,,,,
JVASP-50828,CaCl2O6,-0.78322,5.238,na,0.0679,,,,,
JVASP-1648,KErTe2,-1.45533,1.331,2.045,0.0,,,,,
JVASP-48538,LiV2OF5,-2.92018,0.457,na,0.0521,,,,,
JVASP-103576,Rb2NaYCl6,-2.23975,5.066,na,0.0,,,,,
JVASP-102189,NdFeNi4,-0.22952,0.0,na,0.0568,,,,,
JVASP-103626,PuAs3,-0.1531,0.0,na,0.4722,,,,,
JVASP-105191,LiY2Tl,-0.26383,0.0,0.0,0.0,,,,,
JVASP-101025,Tb3Ce,0.05517,0.0,na,0.0552,,,,,
JVASP-101130,Pr2ZnAs4,-0.92281,0.0,0.0,0.022,,,,,
JVASP-14952,NdTe2,-1.30709,0.0,na,0.0,,,,,
JVASP-105110,Ac2MgGa,-0.27967,0.0,0.0,0.0,,,,,
JVASP-104775,MgZrN2,-1.61515,0.67,na,0.0,,,,,
JVASP-101948,CdH4C4O4,-0.69889,3.622,na,0.13,,,,,
JVASP-104107,H3C3N,0.06026,6.135,na,0.2275,,,,,
JVASP-102267,Rb2TlRhF6,-2.3041,1.912,2.316,0.0,,,,,
JVASP-103731,AsPd6Pb,-0.19763,0.0,0.0,0.0981,,,,,
JVASP-104720,Mn3Ga,0.12685,0.0,na,0.1779,,,,,
JVASP-101732,CrB4Mo,-0.25342,0.0,na,0.1387,,,,,
JVASP-103800,H4C3O2,-0.36298,3.009,na,0.3019,,,,,
JVASP-18456,LiSnS2,-0.79455,0.0,0.924,0.0848,,,,,
JVASP-102313,ZnCuAu2,-0.14556,0.0,0.0,0.0,,,,,
JVASP-2238,KSnSb,-0.40335,0.314,1.111,0.0,,,,,
JVASP-102938,EuSnRh2,-0.72428,0.0,na,0.6027,,,,,
JVASP-102810,AlAg4,-0.03483,0.0,0.0,0.0293,,,,,
JVASP-16068,CaP2Rh2,-0.96115,0.0,0.0,0.0,,,,,
JVASP-104621,TbDyRh2,-0.9212,0.0,0.0,0.0,,,,,
JVASP-104528,Rb2AgIrF6,-2.06777,1.555,na,0.0416,,,,,
JVASP-51114,LiHg2Os,0.79028,0.0,na,0.9381,,,,,
JVASP-103473,Ho4Si3Ge,-0.81627,0.0,na,0.0062,,,,,
JVASP-104836,YbAcAu2,-0.97774,0.0,0.0,0.0,,,,,
JVASP-102605,NaSr2IO6,-1.97219,2.414,4.039,0.0,,,,,
JVASP-102701,Nb6GaGe,-0.20986,0.0,na,0.044,,,,,
JVASP-101856,HCSN,0.02812,1.168,na,0.1343,,,,,
JVASP-102552,SrZnO3,-1.71244,0.0,na,0.2185,,,,,
JVASP-103088,InAu3,-0.00339,0.0,na,0.1056,,,,,
JVASP-103360,EuNiP,-1.2377,0.0,na,0.0,,,,,
JVASP-104947,Mn2TeSe,-0.10853,0.0,0.0,0.1352,,,,,
JVASP-105407,SmZnCuAs2,-0.69209,0.0,0.18,0.0036,,,,,
JVASP-18955,TiP,-1.22746,0.0,na,0.0,,,,,
JVASP-101805,H10C12S,0.02756,3.121,na,0.1443,,,,,
JVASP-100980,HgBr3,-0.03262,0.0,na,0.2288,,,,,
JVASP-103280,MgS,-1.60506,3.585,5.208,0.0398,,,,,
JVASP-103172,K2InGaI6,-0.83317,0.013,na,0.0963,,,,,
JVASP-102653,Y3SiS2,-1.8128,0.0,0.0,0.0,,,,,
JVASP-102508,LaHoTl2,-0.41605,0.0,na,0.0,,,,,
JVASP-105570,CrCN2,-0.05613,0.0,na,0.2933,,,,,
JVASP-104671,VPt3,-0.33232,0.0,na,0.1165,,,,,
JVASP-103927,ZnH14C9O4,-0.42242,4.819,na,0.0875,,,,,
JVASP-101085,V3MoO6,-2.32418,0.0,na,0.0243,,,,,
JVASP-106293,MnCuF6,-2.1114,0.0,na,0.0,,,,,
JVASP-104565,GaAg3,-0.00597,0.0,na,0.0088,,,,,
JVASP-102411,Na2InHgBr6,-0.84677,0.0,na,0.2207,,,,,
JVASP-106449,Rb2ErAgCl6,-1.92102,3.526,na,0.0,,,,,
JVASP-42174,V6O11F,-2.60244,0.0,0.0,0.0124,,,,,
JVASP-50203,NaCeO2,-2.7962,0.0,na,0.0163,,,,,
JVASP-101193,Fe2SbTe3,-0.14901,0.0,na,0.0079,,,,,
JVASP-28571,Te2W3Se4,-0.34759,0.851,0.847,0.1287,,,,,
JVASP-102452,AgAs,0.18455,0.0,0.0,0.1845,,,,,
JVASP-103577,ZrBrN,-1.5371,2.759,na,0.2687,,,,,
JVASP-105345,YZnCuP2,-0.82914,0.07,na,0.0,,,,,
JVASP-101733,CeCuGe,-0.62091,0.0,na,0.0,,,,,
JVASP-101253,V2ZnO6,-2.2768,2.157,2.511,0.0,,,,,
JVASP-101677,VSiGe,-0.19949,0.0,na,0.087,,,,,
JVASP-101532,AlCuO3,-1.83327,0.113,na,0.1174,,,,,
JVASP-14723,TmAu,-0.95536,0.0,0.0,0.0126,,,,,
JVASP-16129,ScGeRu,-0.78857,0.0,na,0.0,,,,,
JVASP-15579,ErFe2Ge2,-0.47071,0.0,na,0.0,,,,,
JVASP-102268,K2RbTaBr6,-1.28891,0.0,na,0.1398,,,,,
JVASP-50481,ErAlO3,-3.64914,6.123,7.547,0.0,,,,,
JVASP-101857,HCSNO2,0.07337,2.937,na,0.8244,,,,,
JVASP-28643,TeMoWSe2S,-0.50413,0.143,na,0.1629,,,,,
JVASP-14607,Pt,-0.0,0.0,0.0,0.0,,,,,
JVASP-104837,Ba3Ho,0.18686,0.0,na,0.1869,,,,,
JVASP-15030,IrO2,-0.94891,0.0,0.0,0.0,,,,,
JVASP-104529,Na2LiBiCl6,-1.41599,3.46,na,0.1493,,,,,
JVASP-104776,ZrGeN2,-0.81785,1.181,na,0.2252,,,,,
JVASP-101626,Yb2ZnHg,-0.51877,0.0,0.0,0.0,,,,,
JVASP-102251,VF4,-2.84461,0.733,3.199,0.0631,,,,,
JVASP-102761,FeCoPt2,0.05145,0.0,na,0.2054,,,,,
JVASP-48372,V6O7F5,-2.68034,0.0,na,0.0351,,,,,
JVASP-104897,TmPd2Pb,-0.72123,0.0,0.0,0.0319,,,,,
JVASP-15625,K2CuF4,-2.45716,0.0,na,0.0122,,,,,
JVASP-102190,NbVC2,-0.45845,0.0,na,0.0859,,,,,
JVASP-2448,GaAgSe2,-0.4228,0.21,1.56,0.0,,,,,
JVASP-104999,Na2TlCuCl6,-1.02465,0.0,na,0.1558,,,,,
JVASP-14989,NbN,-1.2324,0.0,0.0,0.0,,,,,
JVASP-15242,NdBRh3,-0.70131,0.0,na,0.0,,,,,
JVASP-103089,In2GaS4,-0.55198,0.0,na,0.0993,,,,,
JVASP-101088,TiNb,0.02552,0.0,na,0.0255,,,,,
JVASP-102509,LaLuTl2,-0.38343,0.0,na,0.0,,,,,
JVASP-2691,NaNbS2,-1.33969,0.748,1.15,0.0,,,,,
JVASP-103476,Ge3Te2Se,-0.13585,0.591,na,0.0244,,,,,
JVASP-15800,NaAlGe,-0.2557,0.0,na,0.0,,,,,
JVASP-101911,ZnH6C5O4,-0.60776,4.811,na,0.1523,,,,,
JVASP-105571,Ba2SrN2,-0.6401,0.0,na,0.0,,,,,
JVASP-50965,Li2ZrCuO4,-2.3496,0.0,na,0.0813,,,,,
JVASP-104567,Dy3Hg,-0.12706,0.0,na,0.0715,,,,,
JVASP-101734,CeFeCo,-0.24102,0.0,na,0.0,,,,,
JVASP-103367,NdAl2Si2,-0.42265,0.0,na,0.0,,,,,
JVASP-103801,H2C4SO2,-0.1607,0.463,na,0.394,,,,,
JVASP-101533,Li4CO4,-1.8702,4.018,na,0.1781,,,,,
JVASP-18561,CeSi2Ru3,-0.59667,0.0,na,0.0786,,,,,
JVASP-18947,ZrIr2,-0.70676,0.0,na,0.1562,,,,,
JVASP-102553,Pu3Np,-0.04382,0.0,na,0.4027,,,,,
JVASP-15327,Nd2CuO4,-2.80277,0.0,na,0.0,,,,,
JVASP-102812,YMgSe3,-1.25612,0.0,na,0.3005,,,,,
JVASP-18503,U3Si2C2,-0.27424,0.0,0.0,0.0,,,,,
JVASP-105490,In2Bi,0.00677,0.0,0.0,0.0103,,,,,
JVASP-101133,NdFeCoSi2,-0.70112,0.0,na,0.0,,,,,
JVASP-106294,PrAl2Ni,-0.61417,0.0,na,0.0,,,,,
JVASP-106450,Rb2AgAuBr6,-0.93336,0.0,na,0.0,,,,,
JVASP-102453,AcPrMg2,-0.10651,0.0,na,0.0,,,,,
JVASP-101987,H5C8,0.02449,2.34,na,0.1276,,,,,
JVASP-102269,Rb2LiSmCl6,-2.22408,4.867,na,0.0,,,,,
JVASP-101678,VAg3HgO4,-1.11884,1.417,1.63,-0.0,,,,,
JVASP-12940,Ba2Bi2O5,-2.09376,1.993,2.975,0.0,,,,,
JVASP-102412,KRb2AlF6,-3.40432,6.756,9.912,0.0,,,,,
JVASP-102317,Y2AsS,-1.95331,0.0,0.0,0.0,,,,,
JVASP-105111,TbAc3,0.04271,0.0,na,0.0512,,,,,
JVASP-105192,LiDy2Rh,-0.53111,0.0,0.0,0.0,,,,,
JVASP-14681,PrSn3,-0.51396,0.0,na,0.0,,,,,
JVASP-106495,Ca2TlSn,-0.62468,0.0,0.0,0.0,,,,,
JVASP-103090,HfTiN2,-1.89847,0.0,na,0.0166,,,,,
JVASP-103870,SnH18C10O4,-0.34712,4.326,na,0.1097,,,,,
JVASP-101949,CdH4C4O4,-0.69186,4.131,na,0.137,,,,,
JVASP-103174,K2DyAuCl6,-1.69784,2.018,3.192,0.1223,,,,,
JVASP-102510,LaNdMg2,-0.14651,0.0,na,0.0,,,,,
JVASP-104148,H2C,-0.14034,6.546,na,0.0361,,,,,
JVASP-101627,ZrScCo2,-0.42357,0.0,na,0.0,,,,,
JVASP-15243,Ce3B2N4,-1.53677,0.0,na,0.0,,,,,
JVASP-105409,SmAgSn,-0.3668,0.0,na,0.1352,,,,,
JVASP-103983,CdH16C10O4,-0.37221,3.914,na,0.0824,,,,,
JVASP-101027,TbTmIn2,-0.46269,0.0,0.0,0.0087,,,,,
JVASP-102702,Nd2CoSb4,-0.72934,0.0,0.0,0.0402,,,,,
JVASP-102939,FeCu3,0.18884,0.0,na,0.1897,,,,,
JVASP-101089,TiSnIr,-0.59257,0.0,na,0.002,,,,,
JVASP-14608,Na,0.00163,0.0,23.495,0.0,,,,,
JVASP-3243,Ca4Sb2O,-1.7964,0.954,1.332,0.0,,,,,
JVASP-15213,SmB2Ru3,-0.42265,0.0,na,0.0199,,,,,
JVASP-103628,SrSn3,-0.46573,0.0,0.0,0.0,,,,,
JVASP-5293,MnH,0.29366,0.0,0.0,0.2943,,,,,
JVASP-49853,TmGaO3,-2.97385,3.929,5.554,0.0,,,,,
JVASP-51156,TcSnSe,0.92238,0.0,na,1.2527,,,,,
JVASP-22720,Ba2SbAu,-1.05052,0.7,0.892,0.0,,,,,
JVASP-103477,HfNbN2,-1.52424,0.0,na,0.0544,,,,,
JVASP-19850,HgSe,0.00402,0.0,0.0,0.0174,,,,,
JVASP-101254,Ba2Mn2As2O,-1.12472,0.0,na,0.0662,,,,,
JVASP-19,TiTe,-0.36794,0.0,0.0,0.3347,,,,,
JVASP-103578,NaBiS2,-0.84949,0.978,1.3,0.0256,,,,,
JVASP-102554,Sc2TlZn,-0.34066,0.0,na,0.0,,,,,
JVASP-15466,ZrGeSe,-1.07879,0.0,na,0.0,,,,,
JVASP-48539,Cr2OF2,-1.85981,0.707,na,0.3103,,,,,
JVASP-105346,YZrFe4,-0.21603,0.0,na,0.0023,,,,,
JVASP-104108,H3C2NO,-0.38191,4.24,na,0.1186,,,,,
JVASP-104900,Rb3Bi2,-0.43225,0.0,na,0.01,,,,,
JVASP-43149,Li2SiNiO4,-2.17151,0.0,na,0.0535,,,,,
JVASP-18525,Rb2WBr6,-1.14395,0.0,0.0,0.0,,,,,
JVASP-102270,Rb3AsBr6,-1.26874,2.884,na,0.0235,,,,,
JVASP-105000,Rb2GaCuF6,-2.58743,0.366,na,0.0103,,,,,
JVASP-12085,ThI2,-1.10546,0.0,na,0.0,,,,,
JVASP-2937,K3Sb2Au3,-0.51047,1.01,1.548,0.0,,,,,
JVASP-106451,Rb2DyAgCl6,-1.91527,3.515,na,0.0,,,,,
JVASP-104531,Na2CuAuF6,-1.82734,0.0,na,0.1856,,,,,
JVASP-14724,CoN,-0.01854,0.0,0.0,0.0025,,,,,
JVASP-104622,TbHoIn2,-0.47949,0.0,0.0,0.0067,,,,,
JVASP-50612,Ti3NbCu3O12,-2.21545,0.0,0.0,0.0624,,,,,
JVASP-101194,Ga2CoNi,-0.29476,0.0,0.0,0.0139,,,,,
JVASP-105195,Lu2CoCu,-0.35179,0.0,na,0.0,,,,,
JVASP-103803,H2C2S,0.13814,1.395,na,0.2481,,,,,
JVASP-103091,HfTaCN,-1.22997,0.0,na,0.0524,,,,,
JVASP-15714,ThGeS,-1.51906,0.0,na,0.0,,,,,
JVASP-104777,LiSnN,-0.31751,1.071,1.31,0.0188,,,,,
JVASP-101679,VCoNiPd,0.01128,0.0,na,0.248,,,,,
JVASP-43888,Li5FeOF5,-2.66074,0.576,na,0.1994,,,,,
JVASP-102703,NaWCl2O2,-1.85384,0.0,na,0.0709,,,,,
JVASP-104672,TmCuGe,-0.65343,0.0,0.0,0.0283,,,,,
JVASP-104568,Er2CuTc,-0.20697,0.0,na,0.0578,,,,,
JVASP-102318,V6CoNi,-0.18952,0.0,na,0.0,,,,,
JVASP-15762,Sn,0.07472,0.0,na,0.0,,,,,
JVASP-102762,Er2CuNi,-0.46429,0.0,0.0,0.0,,,,,
JVASP-2343,Rb3AuO,-0.85123,0.177,na,0.0195,,,,,
JVASP-101535,AlF3,-3.70171,7.533,11.011,0.0536,,,,,
JVASP-103732,AlV6Sn,-0.08662,0.0,0.0,0.0016,,,,,
JVASP-102654,YMn2SiGe,-0.53386,0.0,na,0.0,,,,,
JVASP-103370,Np2SO2,-2.8429,0.0,na,0.0,,,,,
JVASP-15063,USi3,-0.26268,0.0,0.0,0.0,,,,,
JVASP-16001,K2RhF6,-2.37733,0.0,0.0,0.0,,,,,
JVASP-101737,CdAu,-0.12654,0.0,0.0,0.0645,,,,,
JVASP-104721,MgNiO2,-1.85603,0.911,na,0.0427,,,,,
JVASP-103192,Na3TlI6,-0.65835,0.0,0.813,0.3037,,,,,
JVASP-101628,ZrGaRu2,-0.55371,0.0,0.0,0.0,,,,,
JVASP-102252,LiAl2FeO6,-2.34797,0.319,na,0.1205,,,,,
JVASP-18505,CrS2,-0.62435,0.0,na,0.0452,,,,,
JVASP-101569,GeRh3,-0.20202,0.0,0.0,0.1162,,,,,
JVASP-15580,CeSi2Cu2,-0.52693,0.0,na,0.0,,,,,
JVASP-101136,NbPt4,-0.25258,0.0,na,0.275,,,,,
JVASP-2041,MnBr2,-0.75781,1.419,na,0.0,,,,,
JVASP-102511,KIn3,-0.10438,0.0,0.0,0.0,,,,,
JVASP-106303,LiTaF6,-3.35668,6.115,na,0.0129,,,,,
JVASP-102271,Rb3BiCl6,-1.62472,3.954,na,0.0238,,,,,
JVASP-2784,Ba4As2O,-1.6313,0.668,na,0.0,,,,,
JVASP-14991,YSe,-1.86769,0.0,1.413,0.0,,,,,
JVASP-105002,K2TlGaBr6,-1.17153,1.241,na,0.0719,,,,,
JVASP-5071,BaIn2Te4,-0.78452,0.904,1.465,0.0,,,,,
JVASP-101028,Ti2FeRu,-0.61036,0.0,na,0.0091,,,,,
JVASP-103676,TmAlNi4,-0.51361,0.0,0.0,0.0739,,,,,
JVASP-102413,KRb2IrF6,-2.4596,2.482,3.281,0.0,,,,,
JVASP-105264,Tc3Ge,0.08736,0.0,na,0.1396,,,,,
JVASP-2454,Sm2SO2,-3.35068,3.043,4.622,0.0,,,,,
JVASP-101988,HC,0.54735,5.02,na,0.6804,,,,,
JVASP-15410,Ti3TlC,-0.46583,0.0,0.0,0.024,,,,,
JVASP-104840,CaSbPd2,-0.73598,0.0,0.0,0.0,,,,,
JVASP-103485,Fe2Si,-0.19903,0.0,0.0,0.1177,,,,,
JVASP-102192,Nb2AlB6,-0.44608,0.0,na,0.0015,,,,,
JVASP-104780,Ba2CdN2,-0.44953,0.39,na,0.1279,,,,,
JVASP-5677,Al2Te3,-0.48681,1.776,2.273,0.0,,,,,
JVASP-105410,SiGe,0.01025,0.694,1.073,0.0228,,,,,
JVASP-101570,K3Ca,0.11998,0.0,na,0.1306,,,,,
JVASP-104533,Rb2ScInBr6,-1.6122,2.024,na,0.0,,,,,
JVASP-101680,V6FeNi,-0.18904,0.0,na,0.0,,,,,
JVASP-105491,Ho2In3Cu,-0.41678,0.0,0.0,0.0229,,,,,
JVASP-101629,MgRePb2O6,-1.8385,0.0,na,0.0,,,,,
JVASP-57886,BaCr4O8,-2.01777,0.0,na,0.3052,,,,,
JVASP-103630,PuTiO3,-3.23762,0.0,na,0.008,,,,,
JVASP-104570,Er3Sn,-0.40716,0.0,na,0.0743,,,,,
JVASP-101029,Ti2CuIr,-0.53099,0.0,na,0.0085,,,,,
JVASP-101950,CdH4C4O4,-0.70521,3.558,na,0.1237,,,,,
JVASP-15829,BiO2,-0.9516,0.0,0.072,0.2078,,,,,
JVASP-50967,Tb2SeO2,-3.27251,2.259,3.481,0.0405,,,,,
JVASP-101255,FeBiO3,-1.27034,0.0,na,0.1364,,,,,
JVASP-15164,ZrGeTe,-0.8014,0.0,0.0,0.0,,,,,
JVASP-104673,Tl2GaCu3Se4,-0.33093,0.316,na,0.0267,,,,,
JVASP-19881,TaNi3,-0.37535,0.0,0.0,0.0033,,,,,
JVASP-48377,Co2OF3,-1.62265,0.0,na,0.0257,,,,,
JVASP-106452,Rb2AgBiF6,-2.41235,2.471,3.853,0.0,,,,,
JVASP-2550,BaAg2GeS4,-0.85222,0.574,1.819,0.0,,,,,
JVASP-100982,InSn3,0.04129,0.0,na,0.0426,,,,,
JVASP-4756,YbPrSe3,-1.72861,0.0,na,0.1954,,,,,
JVASP-104624,YbDyCd2,-0.42571,0.0,0.0,0.0,,,,,
JVASP-106304,K2Ag,0.09652,0.0,na,0.1439,,,,,
JVASP-101738,Cd2SnGeAs4,-0.09261,0.118,0.202,0.0,,,,,
JVASP-103092,HfScSi2,-0.76678,0.0,0.0,0.009,,,,,
JVASP-105579,CoHO2,-1.1453,0.743,na,0.0,,,,,
JVASP-103579,Na2Cu3O4,-1.02264,0.0,na,0.0333,,,,,
JVASP-15668,TmCo2Ge2,-0.59495,0.0,0.0,0.0,,,,,
JVASP-104949,Li2SnPd,-0.6269,0.0,0.0,0.0,,,,,
JVASP-3987,DyCl3,-2.36916,3.605,5.007,0.0,,,,,
JVASP-54762,TeH6O6,-0.95488,3.087,4.289,0.012,,,,,
JVASP-104901,TmMn2SiC,-0.53964,0.0,na,0.0,,,,,
JVASP-101571,K3Ba,0.08902,0.0,na,0.0955,,,,,
JVASP-101862,H12C14SN2,0.00956,2.621,na,0.1462,,,,,
JVASP-101195,Fe4N,0.04651,0.0,na,0.1685,,,,,
JVASP-19895,CoPt3,-0.04642,0.0,0.0,0.0161,,,,,
JVASP-106723,Tb3Mg,-0.03622,0.0,na,0.001,,,,,
JVASP-102512,LaPmMg2,-0.1401,0.0,na,0.0,,,,,
JVASP-102253,Li2VF4,-2.82484,1.492,na,0.1632,,,,,
JVASP-15763,Tb,0.01113,0.0,0.0,0.0,,,,,
JVASP-102606,DyMgAu,-0.74698,0.0,na,0.0,,,,,
JVASP-51197,FeTc2Cl,0.74255,0.0,na,1.0243,,,,,
JVASP-105008,KTlCl3,-1.25545,0.646,na,0.0698,,,,,
JVASP-102414,Rb2LiMoBr6,-1.33364,1.225,na,0.0106,,,,,
JVASP-100983,K3Na,-0.01298,0.0,na,0.0002,,,,,
JVASP-106658,Ce2InAu2,-0.75636,0.0,na,0.0,,,,,
JVASP-101913,ZnH8C6O4,-0.53256,4.385,na,0.1353,,,,,
JVASP-18599,BaAu5,-0.47988,0.0,na,0.0,,,,,
JVASP-101806,H8C9S,0.05616,1.919,na,0.1756,,,,,
JVASP-105493,InAg2BiSe4,-0.32623,0.0,na,0.011,,,,,
JVASP-15288,ZrSiS,-1.27997,0.0,0.0,0.0,,,,,
JVASP-103678,TiCu2Sn,-0.01048,0.0,na,0.1614,,,,,
JVASP-101256,LaCoO3,-2.47339,0.0,na,0.03,,,,,
JVASP-14609,Ge,0.1388,0.0,0.0,0.0,,,,,
JVASP-104534,Rb2NaDyCl6,-2.22795,5.051,na,0.0,,,,,
JVASP-101739,CaHF,-2.41571,4.717,6.929,0.0129,,,,,
JVASP-14992,Na3N,0.11432,0.0,0.0,0.1729,,,,,
JVASP-102556,SmErIr2,-0.88266,0.0,0.0,0.0,,,,,
JVASP-102655,V6GaGe,-0.24333,0.0,na,0.0,,,,,
JVASP-102454,Al3Au,-0.12817,0.0,0.0,0.234,,,,,
JVASP-4101,Bi2Te2Se,-0.31132,0.23,na,0.0,,,,,
JVASP-101681,UFeCo,-0.26738,0.0,na,0.0,,,,,
JVASP-102704,NaNd2Se3,-1.8316,0.0,0.0,0.0,,,,,
JVASP-101030,TiGaTc2,-0.26491,0.0,na,0.0196,,,,,
JVASP-102764,Dy2CuAg3,-0.32484,0.0,na,0.029,,,,,
JVASP-105582,VO2,-2.35743,0.0,na,0.2023,,,,,
JVASP-103094,Ge2TeSe,-0.161,0.536,0.463,0.0242,,,,,
JVASP-105347,YU2O6,-3.71591,0.0,na,0.0,,,,,
JVASP-18673,CrGaFe2,-0.04589,0.0,0.0,0.0439,,,,,
JVASP-18755,NdZn5,-0.30926,0.0,na,0.0,,,,,
JVASP-105415,ScCoNiSn,-0.47605,0.0,na,0.0181,,,,,
JVASP-15581,Sr2CuO3,-2.33717,0.0,na,0.0,,,,,
JVASP-106453,Na2AlHgCl6,-1.24501,0.0,na,0.25,,,,,
JVASP-15064,HfRu,-0.82313,0.0,0.0,0.0,,,,,
JVASP-106496,Cd,-0.00992,0.0,0.0,0.0,,,,,
JVASP-102854,CaZn,-0.16658,0.0,0.0,0.1709,,,,,
JVASP-3015,ThCu2P2,-0.79016,0.146,0.446,0.0,,,,,
JVASP-105265,Ti2AlW,-0.26721,0.0,na,0.1124,,,,,
JVASP-101631,Ho2MgNi2,-0.47325,0.0,na,0.0,,,,,
JVASP-42175,LiVF4,-3.05343,0.168,na,0.0201,,,,,
JVASP-50881,BaY2F8,-4.19599,6.349,8.283,0.1214,,,,,
JVASP-102319,TlPb,-0.01756,0.0,0.0,0.0,,,,,
JVASP-100984,HoMg2,-0.0708,0.0,na,0.0,,,,,
JVASP-22570,K3MoF6,-2.61302,0.0,0.0,0.1333,,,,,
JVASP-106724,TaWSe4,-0.68383,0.0,na,0.0001,,,,,
JVASP-102513,Li3La,0.15302,0.0,na,0.1537,,,,,
JVASP-104626,YbCe3,0.1176,0.0,na,0.1176,,,,,
JVASP-101573,In3Sn,0.00889,0.0,na,0.0128,,,,,
JVASP-50829,CaY2O4,-3.63539,4.255,5.443,0.0574,,,,,
JVASP-106307,Sr2NdNbO6,-3.10275,2.954,na,0.1215,,,,,
JVASP-104841,CdHg3,0.18224,0.0,0.0,0.1847,,,,,
JVASP-15366,TlNi2Se2,-0.26532,0.0,0.329,0.033,,,,,
JVASP-103487,ErUN2,-1.73084,0.0,na,0.0448,,,,,
JVASP-4110,Tl2PdCl4,-0.83245,1.092,na,0.0,,,,,
JVASP-103931,ZnH18C11O4,-0.36619,4.367,na,0.0849,,,,,
JVASP-1783,PrCuO2,-2.40735,2.422,2.637,0.0168,,,,,
JVASP-102813,ScBC,-0.6786,0.0,0.0,0.0063,,,,,
JVASP-105196,LiPmIn2,-0.44434,0.0,0.0,0.0,,,,,
JVASP-18435,CuCO3,-0.9343,0.0,0.0,0.1492,,,,,
JVASP-105416,Rb3Br2Cl,-1.9541,4.292,na,0.0,,,,,
JVASP-43150,Li2Cr2FeO6,-1.93929,0.0,0.0,0.1144,,,,,
JVASP-106600,ScFe3,-0.00783,0.0,na,0.2431,,,,,
JVASP-101258,LiVF6,-2.94622,2.841,3.296,0.0,,,,,
JVASP-49855,Li8BiO6,-1.89144,0.0,1.628,0.0439,,,,,
JVASP-22687,Sr2HN,-0.80494,1.864,2.994,0.0,,,,,
JVASP-101031,TiMnIr2,-0.55667,0.0,0.0,0.049,,,,,
JVASP-102705,NaCoO2,-1.48378,0.894,na,0.0236,,,,,
JVASP-101633,Sr2InReO6,-2.30394,0.0,na,0.0,,,,,
JVASP-102415,Rb2NaMoI6,-0.94704,1.084,1.595,0.0,,,,,
JVASP-104722,Mn3Fe3Ge2,-0.03193,0.0,na,0.0406,,,,,
JVASP-5680,Hg2TeO3,-0.571,2.041,4.037,0.0903,,,,,
JVASP-104674,TiZnCu2,-0.09914,0.0,na,0.0749,,,,,
JVASP-105010,K3AsF6,-2.64747,4.422,5.821,0.0198,,,,,
JVASP-101682,Tl2FeCu3Te4,-0.1202,0.0,na,0.0431,,,,,
JVASP-104149,H6C4S,-0.02066,1.697,na,0.1255,,,,,
JVASP-102657,TiV,0.11019,0.0,na,0.1102,,,,,
JVASP-103098,DyErAl4,-0.53147,0.0,na,0.0005,,,,,
JVASP-2457,NbCu3S4,-0.63456,1.64,1.568,0.0,,,,,
JVASP-101741,BiSb,-0.00937,0.034,0.073,0.0,,,,,
JVASP-16161,ScFeGe,-0.57188,0.0,na,0.0182,,,,,
JVASP-104109,H3C5N,0.05725,2.607,na,0.1881,,,,,
JVASP-101203,ErFeNi,-0.29171,0.0,na,0.0865,,,,,
JVASP-102815,CuCl2,-0.49309,0.0,na,0.0362,,,,,
JVASP-104782,LiV2CrO6,-2.43367,0.0,na,0.0109,,,,,