jid,formula,formation_energy_per_atom,optb88vdw_bandgap,mbj_bandgap,ehull,spacegroup_number,natoms,volume,bulk_modulus_kv,shear_modulus_gv
JVASP-100767,Yb2InPb,-0.58877,0.0,0.0,0.0061,,,,,
JVASP-16211,V5Te4,-0.30161,0.0,na,0.0,,,,,
JVASP-2781,Sr4As2O,-1.77542,1.221,1.797,0.0,,,,,
JVASP-101383,KRb2InBr6,-1.42904,2.505,na,0.034,,,,,
JVASP-102748,HfNbC2,-0.82132,0.0,na,0.0,,,,,
JVASP-100402,FeCoSn4,0.02958,0.0,na,0.0626,,,,,
JVASP-101239,AlV6Ge,-0.2276,0.0,na,0.0,,,,,
JVASP-100585,Na2YCuCl6,-1.63797,1.626,2.639,0.1775,,,,,
JVASP-49752,SrO,-2.9335,3.078,4.769,0.0922,,,,,
JVASP-101076,ZnSnSb2,-0.04823,0.0,na,0.0043,,,,,
JVASP-102074,Rb2HgSbCl6,-1.21221,0.0,na,0.0858,,,,,
JVASP-102928,Eu2AgGe,-0.5732,0.0,na,0.0,,,,,
JVASP-42171,LiMnSiO4,-2.38127,0.43,na,0.0467,,,,,
JVASP-102400,Rb2TlAgCl6,-1.26033,0.0,na,0.0,,,,,
JVASP-104102,HCF,-0.82051,7.223,na,0.1937,,,,,
JVASP-102501,K2CdAu,-0.25348,0.0,0.0,0.0,,,,,
JVASP-100714,Er3Ga,-0.25872,0.0,na,0.0704,,,,,
JVASP-14602,Se,0.53302,0.0,0.0,0.0,,,,,
JVASP-102184,Sm2AsSe,-1.78231,0.0,na,0.0,,,,,
JVASP-102242,TlSbS2,-0.28637,0.0,na,0.1214,,,,,
JVASP-102546,PmAu3,-0.72652,0.0,0.0,0.0,,,,,
JVASP-101720,GaAgSnSe4,-0.3997,0.664,1.43,0.0,,,,,
JVASP-101775,Zn2Ni3O5,-0.96437,0.0,na,0.1548,,,,,
JVASP-101185,In2Bi,0.01355,0.0,na,0.0171,,,,,
JVASP-103153,Li2MnO2,-1.87091,0.0,na,0.0716,,,,,
JVASP-103268,LiEu3,0.17018,0.0,na,0.1707,,,,,
JVASP-28767,Te2Mo3WSe6,-0.49094,0.54,na,0.0752,,,,,
JVASP-101984,H7C8,0.04103,2.86,na,0.1654,,,,,
JVASP-99654,Ni2P2Se3S3,-0.17472,0.0,0.207,0.1065,,,,,
JVASP-100900,K2YHgF6,-2.94262,0.0,na,0.2184,,,,,
JVASP-101944,HfH8C6O4,-0.70866,2.311,na,0.2637,,,,,
JVASP-104505,K2LiNdF6,-3.46169,6.536,9.163,0.0762,,,,,
JVASP-103922,ZnH10C7O4,-0.48563,4.35,na,0.1152,,,,,
JVASP-100633,VCu3Se2S2,-0.558,1.016,1.125,0.0,,,,,
JVASP-15797,TbMg3,-0.07631,0.0,na,0.0,,,,,
JVASP-102134,Tm2ZnPd,-0.682,0.0,0.0,0.0017,,,,,
JVASP-21540,KSbF4,-2.69704,4.437,na,0.0,,,,,
JVASP-103560,K2CeAgCl6,-1.80247,0.238,na,0.0685,,,,,
JVASP-19010,Sb2S3,-0.33787,1.318,1.887,0.0,,,,,
JVASP-104617,SrLaPt2,-1.10729,0.0,na,0.0234,,,,,
JVASP-101019,SrAc3,0.04663,0.0,na,0.0551,,,,,
JVASP-103978,CdH14C9O4,-0.40331,3.821,na,0.0811,,,,,
JVASP-15465,Ce2TeO2,-3.01679,0.0,na,0.0,,,,,
JVASP-102447,Ac2ZnAu,-0.58389,0.0,0.0,0.0,,,,,
JVASP-101846,H9C13SN,0.07151,0.943,na,0.1881,,,,,
JVASP-101799,H6C6SO,-0.04626,2.021,na,0.2448,,,,,
JVASP-100457,MnSnF6,-2.52471,1.027,na,0.0,,,,,
JVASP-102749,GeSb2Te4,-0.12451,0.345,na,0.0005,,,,,
JVASP-103000,PrSiRu2C,-0.54388,0.0,na,0.0,,,,,
JVASP-103457,Mn2InSbPd4,-0.27045,0.0,na,0.0634,,,,,
JVASP-2922,K3AuO,-0.92314,0.519,1.787,0.0,,,,,
JVASP-101525,CuBr2,-0.09403,0.0,na,0.2336,,,,,
JVASP-103349,K3HoCl6,-2.144,4.708,6.956,0.0045,,,,,
JVASP-101384,Rb3TmCl6,-2.17535,4.778,6.784,0.0153,,,,,
JVASP-103619,Na3Cd,-0.09533,0.0,0.0,0.0002,,,,,
JVASP-50727,YZr4O9,-3.61032,0.0,4.504,0.0734,,,,,
JVASP-101622,Y2TlZn,-0.41512,0.0,na,0.0,,,,,
JVASP-100721,Hf2TcPd,-0.62716,0.0,na,0.0012,,,,,
JVASP-102081,Rb2AgAuCl6,-1.0928,0.0,na,0.0082,,,,,
JVASP-100403,FeNiP2S6,-0.28208,0.0,na,0.107,,,,,
JVASP-100588,KNa2TiF6,-2.97999,0.0,na,0.2362,,,,,
JVASP-103079,LiDySe2,-1.69824,0.151,na,0.083,,,,,
JVASP-19821,MgB2,-0.19412,0.0,0.0,0.0,,,,,
JVASP-101077,ZnCu,-0.07617,0.0,na,0.0012,,,,,
JVASP-1366,Li3Sb,-0.68249,0.919,1.216,0.0077,,,,,
JVASP-101564,HfMgPt2,-1.06859,0.0,0.0,0.0,,,,,
JVASP-106264,MnZnAu2,-0.09602,0.0,0.0,0.0314,,,,,
JVASP-100768,HoRe2SiC,-0.45643,0.0,na,0.0,,,,,
JVASP-103725,BiPd6Se,-0.14867,0.0,na,0.0527,,,,,
JVASP-100855,PmS,-2.17604,0.0,0.0,0.0,,,,,
JVASP-15162,Li2GaPd,-0.55998,0.0,na,0.0,,,,,
JVASP-102403,Rb2ScAuF6,-2.92458,1.581,3.339,0.1215,,,,,
JVASP-100969,ErHfRu2,-0.64636,0.0,0.0,0.0,,,,,
JVASP-104145,H6C7S2,0.05996,1.381,1.839,0.169,,,,,
JVASP-19935,YP,-1.76284,0.0,0.0,0.0,,,,,
JVASP-101436,ThSiOs2C,-0.52448,0.0,na,0.0,,,,,
JVASP-18942,SiPt,-0.58431,0.0,na,0.0,,,,,
JVASP-102185,Ni6SnSe2,-0.1938,0.0,na,0.0221,,,,,
JVASP-102306,Mg2Sb3,-0.15904,0.0,0.0,0.1283,,,,,
JVASP-101776,LiIn3,-0.17072,0.0,na,0.0,,,,,
JVASP-104666,Zr2HN2Cl2,-1.454,0.0,na,0.2464,,,,,
JVASP-103269,YbLiAu2,-0.83604,0.0,na,0.0232,,,,,
JVASP-103156,Rb2ScHgF6,-2.97452,0.0,na,0.1257,,,,,
JVASP-102805,B4MoIr,-0.22431,0.0,0.0,0.0,,,,,
JVASP-102599,Sc2CoGe2,-0.79221,0.0,na,0.0082,,,,,
JVASP-102502,HoScAl2,-0.44079,0.0,0.0,0.0214,,,,,
JVASP-5200,BiSeI,-0.43535,1.529,2.224,0.0,,,,,
JVASP-101125,RbNaCd3O4,-1.27727,0.444,na,0.0,,,,,
JVASP-100722,HfZrOs2,-0.70218,0.0,na,0.0022,,,,,
JVASP-103460,LiBiS2,-0.85693,1.441,na,0.0,,,,,
JVASP-102929,GaAg3,0.01436,0.0,na,0.0291,,,,,
JVASP-5671,PdCl2,-0.48211,1.092,na,0.001,,,,,
JVASP-100902,K2TlAuCl6,-1.11454,0.0,na,0.0819,,,,,
JVASP-101240,Al2Ni3,-0.54013,0.0,na,0.0526,,,,,
JVASP-28835,MoWSe4,-0.58799,1.036,na,0.0449,,,,,
JVASP-15326,CaMn2Sb2,-0.13901,0.0,0.0,0.2646,,,,,
JVASP-20084,BW2,-0.21903,0.0,0.0,0.3463,,,,,
JVASP-103564,K2CuBiCl6,-1.32214,1.06,na,0.0055,,,,,
JVASP-100809,PrDyC4,-0.26326,0.0,0.0,0.0357,,,,,
JVASP-102243,SbN,0.29368,1.655,na,0.3014,,,,,
JVASP-44052,Mg3WO6,-2.78067,3.081,4.134,0.0335,,,,,
JVASP-103670,YAgSe2,-1.19463,0.0,0.0,0.0902,,,,,
JVASP-101526,Sr2CuSO2,-2.07643,0.0,na,0.1124,,,,,
JVASP-100856,MoS3,-0.34773,0.443,na,0.3778,,,,,
JVASP-101721,Fe3Ni3Pt2,-0.15497,0.0,na,0.0,,,,,
JVASP-101800,H4C7S2O,0.024,1.567,na,0.279,,,,,
JVASP-102697,Ni4GePt5,-0.07443,0.0,na,0.0952,,,,,
JVASP-44736,Li2NiSnO4,-1.68129,0.0,na,0.0619,,,,,
JVASP-102649,Yb2AgPd,-0.75835,0.0,0.0,0.0,,,,,
JVASP-101020,SrLi2In,-0.30903,0.0,na,0.0,,,,,
JVASP-12113,FeClO,-1.01452,0.0,0.0,0.0991,,,,,
JVASP-14749,SiNi2,-0.42304,0.0,0.0,0.051,,,,,
JVASP-100589,Na2CuPdF6,-1.95952,0.0,na,0.114,,,,,
JVASP-103797,H8C9O,-0.09201,2.679,na,0.1632,,,,,
JVASP-100458,InFeO3,-1.50151,0.0,na,0.0747,,,,,
JVASP-15028,NdPt2,-1.07871,0.0,0.0,0.0,,,,,
JVASP-100404,Fe3Ge2,0.03472,0.0,na,0.1272,,,,,
JVASP-102404,Rb2NbAuF6,-2.45124,0.26,na,0.3527,,,,,
JVASP-106265,Na3Au,-0.24336,0.0,na,0.0022,,,,,
JVASP-3462,LiInTe2,-0.63651,1.354,2.29,0.0,,,,,
JVASP-104506,K2InHgI6,-0.76758,0.0,0.0,0.0784,,,,,
JVASP-16212,BaLiSi,-0.25891,0.0,na,0.1235,,,,,
JVASP-16067,Sc3InC,-0.7369,0.0,0.0,0.0,,,,,
JVASP-15798,SrGe2,-0.57309,0.0,na,0.0,,,,,
JVASP-19822,CeCo5,-0.12832,0.0,na,0.0264,,,,,
JVASP-101186,In2SnPb,0.0073,0.0,na,0.0127,,,,,
JVASP-101906,ZnH6C5O4,-0.62232,4.361,na,0.1377,,,,,
JVASP-48582,Li6Mn5SbO12,-1.85753,0.0,0.0,0.181,,,,,
JVASP-102547,PmGePd2,-0.67679,0.0,0.0,0.0182,,,,,
JVASP-103080,LiBi3Br2O4,-1.45572,2.452,2.402,0.0036,,,,,
JVASP-100769,Rb2NiAs2,-0.46948,0.275,0.373,0.0,,,,,
JVASP-102449,Ac3La,-0.01244,0.0,na,0.0045,,,,,
JVASP-51195,TaPbBr,1.30876,0.0,na,1.7881,,,,,
JVASP-28387,Te2W,-0.04398,0.892,1.046,0.1416,,,,,
JVASP-103003,CeP2Pt2,-0.93777,0.0,na,0.0646,,,,,
JVASP-102254,K3TlF6,-2.53293,3.711,5.873,0.0,,,,,
JVASP-102135,Yb2Mg,-0.02348,0.0,na,0.0417,,,,,
JVASP-103726,BaLaFeO4,-2.72479,0.0,na,0.0,,,,,
JVASP-103270,La2GaAg,-0.45211,0.0,na,0.0303,,,,,
JVASP-101385,InS2,-0.20513,0.0,na,0.2994,,,,,
JVASP-101849,H3C6S2NO,-0.01868,0.638,na,0.2545,,,,,
JVASP-103157,Rb2HgRhF6,-2.05295,0.0,na,0.0927,,,,,
JVASP-14603,As,-0.0,0.0,0.0,0.0,,,,,
JVASP-101945,CdH4C4O4,-0.71733,3.883,na,0.1116,,,,,
JVASP-18453,U2Cl5O2,-2.29812,0.0,0.0,0.0,,,,,
JVASP-104618,SrPmPt2,-1.04637,0.0,0.0,0.0,,,,,
JVASP-101126,PrCo4Si,-0.26342,0.0,na,0.0738,,,,,
JVASP-102503,HoPaTc2,-0.2428,0.0,na,0.0,,,,,
JVASP-101437,NaThTi2O6,-3.26455,0.0,na,0.0631,,,,,
JVASP-103867,SnH24C13O4,-0.29507,4.72,na,0.1017,,,,,
JVASP-49899,Nb2Pb2O7,-2.24096,0.98,na,0.0192,,,,,
JVASP-100723,Ho2ZnAu,-0.65623,0.0,na,0.0159,,,,,
JVASP-104104,HCF,-0.82609,6.178,8.376,0.1881,,,,,
JVASP-101801,H5C6S2N,0.08986,2.028,na,0.2142,,,,,
JVASP-102601,TbFe2SiC,-0.57495,0.0,na,0.0,,,,,
JVASP-102186,PrMnIn,-0.02937,0.0,0.0,0.3212,,,,,
JVASP-100810,PrGaSi,-0.68228,0.0,na,0.0,,,,,
JVASP-100904,K2ScAgF6,-3.08332,2.886,4.49,0.0004,,,,,
JVASP-103461,Li2SnIr,-0.44553,0.0,na,0.0,,,,,
JVASP-100970,ErMgRh2,-0.80894,0.0,0.0,0.0,,,,,
JVASP-103925,ZnH12C8O4,-0.44944,4.856,na,0.1005,,,,,
JVASP-103621,NaLi2Sn,-0.38346,0.0,0.0,0.0035,,,,,
JVASP-49851,NaCdO2,-1.13773,0.0,na,0.0781,,,,,
JVASP-22569,CsCu3O2,-0.85343,1.562,1.653,0.0,,,,,
JVASP-43610,Na6MnO4,-1.43382,0.077,0.0,0.0663,,,,,
JVASP-51154,TaOsPb,0.77318,0.0,0.0,0.9686,,,,,
JVASP-102082,Na2LiTiF6,-3.15278,0.0,6.923,0.0679,,,,,
JVASP-101565,HfTaRu2,-0.55819,0.0,0.0,0.009,,,,,
JVASP-103351,Ba2ErUO6,-3.52954,0.964,3.731,0.0,,,,,
JVASP-100634,V6CoIr,-0.3404,0.0,0.0,0.0128,,,,,
JVASP-103727,BaBiBrO2,-2.0196,1.727,na,0.0914,,,,,
JVASP-43880,LiVF3,-2.79764,1.513,na,0.1094,,,,,
JVASP-3006,CaCd2P2,-0.62792,0.833,1.769,0.0,,,,,
JVASP-100459,BaNdMn2O6,-2.64103,0.0,na,0.0106,,,,,
JVASP-101021,Ta2VIr,-0.40075,0.0,na,0.0016,,,,,
JVASP-101723,Fe4Se3Br,-0.14455,0.0,na,0.1552,,,,,
JVASP-17907,ZnCu2SnSe4,-0.38737,0.0,na,0.0231,,,,,
JVASP-101623,Y2AlRu,-0.42065,0.0,0.0,0.0549,,,,,
JVASP-15163,SrNi2Ge2,-0.55505,0.0,na,0.0,,,,,
JVASP-102651,YBiTe3,-0.85335,1.064,1.266,0.0,,,,,
JVASP-101388,Al2TcPd,-0.62082,0.0,na,0.0207,,,,,
JVASP-101672,ZnCdAg2,-0.05553,0.0,0.0,0.0,,,,,
JVASP-102930,GaGe3,0.28274,0.0,na,0.2858,,,,,
JVASP-14604,Ba,0.0,0.0,0.0,0.0,,,,,
JVASP-101078,Zr2V3Fe,-0.16402,0.0,na,0.0,,,,,
JVASP-102504,K3Ba,0.09674,0.0,na,0.1032,,,,,
JVASP-102406,Rb2YAuBr6,-1.50638,1.668,na,0.0614,,,,,
JVASP-2928,RbLiSe,-1.3107,2.576,4.246,0.0,,,,,
JVASP-103010,Lu6MnSb2,-0.54294,0.0,na,0.0,,,,,
JVASP-103572,Na2HgAsBr6,-0.70067,0.0,na,0.2075,,,,,
JVASP-43390,Li4Cr5SbO12,-2.05362,0.0,na,0.0876,,,,,
JVASP-102136,Yb2TlHg,-0.57177,0.0,na,0.0053,,,,,
JVASP-103274,MgAgAu2,-0.36815,0.0,na,0.0136,,,,,
JVASP-104513,Na2CuSbF6,-2.15869,0.553,na,0.2691,,,,,
JVASP-15061,TmAg,-0.38077,0.0,na,0.0,,,,,
JVASP-106266,NaAg3,-0.02585,0.0,na,0.0595,,,,,
JVASP-100811,OsPt4,0.03988,0.0,na,0.0399,,,,,
JVASP-52844,NaHCO3,-1.56537,5.646,na,0.0,,,,,
JVASP-28838,Te2MoW3Se4S2,-0.49243,0.422,na,0.177,,,,,
JVASP-102806,BaGe2Au2,-0.55463,0.0,na,0.0,,,,,
JVASP-104146,H6C7,-0.00063,2.95,na,0.1225,,,,,
JVASP-102307,SmSi2Ru3,-0.59094,0.0,na,0.1075,,,,,
JVASP-103981,CdH14C9O4,-0.35595,2.399,na,0.1285,,,,,
JVASP-104717,MnCrP2,-0.52052,0.0,na,0.0162,,,,,
JVASP-100590,KRb2AsF6,-2.6768,4.741,5.901,0.0,,,,,
JVASP-100923,Na2LiNdCl6,-1.94519,3.78,na,0.1989,,,,,
JVASP-100857,Sb4S3N2,-0.07874,0.394,0.547,0.1124,,,,,
JVASP-102245,NaCo3O6,-1.30187,0.0,na,0.0125,,,,,
JVASP-100724,Ho2ZnRh,-0.6652,0.0,0.0,0.0089,,,,,
JVASP-18560,YSi2Rh3,-0.96099,0.0,na,0.0499,,,,,
JVASP-48365,V6O7F5,-2.66656,0.0,na,0.0489,,,,,
JVASP-101438,KThTi2O6,-3.311,0.0,na,0.0261,,,,,
JVASP-14679,VPt3,-0.43114,0.0,0.0,0.0176,,,,,
JVASP-103081,LaCuNi4,-0.31637,0.0,na,0.0,,,,,
JVASP-102548,PmHoZn2,-0.37608,0.0,na,0.0,,,,,
JVASP-104619,SrLa3,0.05879,0.0,na,0.0653,,,,,
JVASP-101128,PrMnNi4,-0.22993,0.0,na,0.044,,,,,
JVASP-104667,ZnCdO2,-1.31406,0.046,1.505,0.0675,,,,,
JVASP-101187,InAgS2,-0.37067,0.0,0.0,0.0876,,,,,
JVASP-103728,BaBiClO2,-2.09699,1.637,na,0.071,,,,,
JVASP-51113,SnIrSe2,0.52358,0.0,0.0,0.9024,,,,,
JVASP-100772,TbMgGa,-0.51432,0.0,0.0,0.0,,,,,
JVASP-15029,Ce2O3,-3.54531,0.0,na,0.004,,,,,
JVASP-42172,BaLu2O4,-3.5944,2.97,4.398,0.0464,,,,,
JVASP-103159,Na2AgAsF6,-2.05335,1.916,3.706,0.2357,,,,,
JVASP-101022,Tb3Ho,0.00855,0.0,na,0.0109,,,,,
JVASP-102751,HfInPt2,-0.83646,0.0,0.0,0.0569,,,,,
JVASP-43133,LiTiFeO4,-2.39739,0.738,na,0.0489,,,,,
JVASP-102258,K2HgSbI6,-0.69728,0.0,na,0.1035,,,,,
JVASP-102450,Ac3Zn,0.02595,0.0,na,0.1857,,,,,
JVASP-103622,Nd3Mg,-0.0339,0.0,na,0.0212,,,,,
JVASP-101527,TaRhO4,-2.10705,0.0,0.151,0.0382,,,,,
JVASP-103462,LaZnAgP2,-0.75144,0.468,na,0.0372,,,,,
JVASP-102602,Rb2P2Pt,-0.60025,0.675,1.011,0.0,,,,,
JVASP-104564,Cu3Ag,0.06828,0.0,0.0,0.0683,,,,,
JVASP-15236,CrO2,-0.25961,0.0,na,1.8516,,,,,
JVASP-102187,PrHoAl4,-0.50921,0.0,0.0,0.0145,,,,,
JVASP-103798,H2C2O,-0.35731,3.025,na,0.2414,,,,,
JVASP-20085,VP,-0.80749,0.0,0.0,0.0,,,,,
JVASP-101673,YbUTe6,-0.67207,0.0,na,0.0427,,,,,
JVASP-103014,ErPd2Pb,-0.71404,0.0,na,0.0361,,,,,
JVASP-101907,ZnH6C5O4,-0.61101,4.396,na,0.1491,,,,,
JVASP-3465,InPS4,-0.40388,2.329,3.469,0.0,,,,,
JVASP-15761,La3TlC,-0.34563,0.0,na,0.0,,,,,
JVASP-15050,TiGa,-0.45469,0.0,0.0,0.0,,,,,
JVASP-101946,CdH4C4O4,-0.71331,3.747,5.612,0.1156,,,,,
JVASP-100924,Na2LiDyCl6,-1.9877,3.906,na,0.1314,,,,,
JVASP-100635,U3O7,-3.35652,0.0,na,0.1407,,,,,
JVASP-104514,TbK2AgCl6,-1.8565,3.353,na,0.0237,,,,,
JVASP-18903,BaBi2O5,-1.50934,0.0,na,0.1843,,,,,
JVASP-14899,ThFe2Si2,-0.68893,0.0,na,0.0,,,,,
JVASP-50732,Li4Ti3O8,-2.84194,1.778,na,0.1055,,,,,
JVASP-102137,Zr2FeTc,-0.33807,0.0,na,0.0,,,,,
JVASP-101389,Ba2ZnHg,-0.37253,0.0,na,0.036,,,,,
JVASP-102083,Na2LiInF6,-2.77709,5.131,na,0.0984,,,,,
JVASP-102308,La2AsI2,-1.67091,0.0,na,0.0,,,,,
JVASP-103868,SnH8C5O4,-0.51157,3.792,na,0.179,,,,,
JVASP-103671,VOs,-0.02956,0.0,na,0.2268,,,,,
JVASP-101241,LiO8,-0.36201,0.0,na,0.0084,,,,,
JVASP-101985,H9C5,-0.1223,6.169,na,0.0479,,,,,
JVASP-104833,CrCu3HgSe4,-0.11361,0.0,na,0.137,,,,,
JVASP-100858,AlInN2,-0.78672,1.528,2.196,0.0432,,,,,
JVASP-50480,ErNbO4,-3.34895,3.301,3.957,0.003,,,,,
JVASP-102699,Nd2CdSb4,-0.72861,0.0,0.0,0.0,,,,,
JVASP-102505,HoLuCu2,-0.35187,0.0,0.0,0.0,,,,,
JVASP-104105,H4C5O2,-0.33096,3.204,na,0.2136,,,,,
JVASP-101566,Ho2RuPt,-0.89591,0.0,0.0,0.0,,,,,
JVASP-100812,NdCuNi4,-0.30619,0.0,na,0.0011,,,,,
JVASP-103352,CeB2Pd2C,-0.51516,0.0,na,0.0756,,,,,
JVASP-14605,Nd,0.0,0.0,na,0.0,,,,,
JVASP-103160,K2NaInCl6,-1.66899,3.137,na,0.0,,,,,
JVASP-101850,HC2SNO2,-0.13656,1.072,2.046,0.5096,,,,,
JVASP-15211,FeSiRu2,-0.25731,0.0,0.0,0.0014,,,,,
JVASP-18630,BaZn2,-0.27624,0.0,na,0.0036,,,,,
JVASP-103573,K2InCuCl6,-1.38691,0.0,na,0.0,,,,,
JVASP-28388,B2S2O9,-1.66988,7.122,9.289,0.0,,,,,
JVASP-50827,BaCaI4,-1.76609,3.72,4.507,0.0429,,,,,
JVASP-101802,H4C6S2O,0.03896,2.18,2.759,0.3133,,,,,
JVASP-102247,MnO2,-1.73944,0.679,na,0.0655,,,,,
JVASP-100971,ErZrRu2,-0.59895,0.0,na,0.0,,,,,
JVASP-100773,Ba2UHgO6,-2.67489,1.657,na,0.0,,,,,
JVASP-101080,YbTm2Se4,-2.01456,1.092,1.916,0.0181,,,,,
JVASP-15506,TaSiAs,-0.44589,0.0,na,0.0,,,,,
JVASP-104771,CuMoO4,-1.51063,0.0,na,0.1385,,,,,
JVASP-102407,Rb2GaAuI6,-0.77455,0.0,0.0,0.0628,,,,,
JVASP-102933,FeTc2Ge,-0.00577,0.0,na,0.0554,,,,,
JVASP-102259,K2AgRuF6,-2.12898,0.0,na,0.0234,,,,,
JVASP-101129,Pr3Si3Ni,-0.7169,0.0,na,0.0,,,,,
JVASP-103276,MgHg3,0.11835,0.0,na,0.1854,,,,,
JVASP-100725,Li2InBi,-0.39086,0.022,0.052,0.0,,,,,
JVASP-103464,LaPrAl4,-0.51794,0.0,na,0.0033,,,,,
JVASP-100925,Na2LiInCl6,-1.49573,2.901,na,0.1033,,,,,
JVASP-3009,CaZn2As2,-0.69868,0.405,1.261,0.0,,,,,
JVASP-106276,Tb3Y,0.0138,0.0,0.0,0.0162,,,,,
JVASP-101674,Yb2US3O2,-2.50482,0.027,na,0.068,,,,,
JVASP-15666,DyCo2Si2,-0.79348,0.0,0.0,0.0,,,,,
JVASP-104668,Zr3S4,-1.74251,0.0,na,0.0,,,,,
JVASP-102309,Rb2SbCl6,-1.44227,0.0,na,0.0,,,,,
JVASP-101567,HoBr2,-1.57871,0.0,na,0.0509,,,,,
JVASP-103623,NdHgAu2,-0.5914,0.0,na,0.0038,,,,,
JVASP-100591,RuPt,0.08324,0.0,0.0,0.0832,,,,,
JVASP-100813,Nb6AlSi,-0.22874,0.0,na,0.0748,,,,,
JVASP-104834,CrI2,-0.27486,0.0,na,0.0011,,,,,
JVASP-14680,CrB2,-0.30514,0.0,na,0.072,,,,,
JVASP-15576,TmBRh3,-0.82356,0.0,0.0,0.0,,,,,
JVASP-104521,Rb2ScAuBr6,-1.45048,1.534,na,0.0,,,,,
JVASP-103162,K2RbErCl6,-2.11325,4.546,na,0.0524,,,,,
JVASP-15407,ErInCu2,-0.3529,0.0,na,0.0,,,,,
JVASP-102139,Zr2TcNi,-0.43307,0.0,na,0.0,,,,,
JVASP-100637,TaO2F,-3.02949,1.598,2.894,0.1135,,,,,
JVASP-18927,YbZn2,-0.436,0.0,0.0,0.0,,,,,
JVASP-103083,KBaLiZnF6,-3.23125,6.004,na,0.0,,,,,
JVASP-104893,HfFeF6,-3.2149,0.0,na,0.0,,,,,
JVASP-101624,YbBi3,-0.41722,0.0,0.0,0.0187,,,,,
JVASP-101243,NaMnN,-0.23078,0.0,na,0.0665,,,,,
JVASP-102756,GaAgSe2,-0.40624,0.0,0.783,0.0166,,,,,
JVASP-100974,ErPa3,0.05208,0.0,na,0.1211,,,,,
JVASP-18598,BaAu2,-0.82889,0.0,na,0.009,,,,,
JVASP-102603,Sr2LaTaO6,-3.24754,3.58,na,0.1101,,,,,
JVASP-15365,SrMn2As2,-0.43974,0.0,na,0.111,,,,,
JVASP-14722,Cr3Pt,-0.01576,0.0,0.0,0.0669,,,,,
JVASP-101852,HC2SNO2,-0.36301,1.425,na,0.2831,,,,,
JVASP-104944,MnNiTe2,-0.09172,0.0,na,0.0,,,,,
JVASP-101726,Er2InAg,-0.42886,0.0,0.0,0.0,,,,,
JVASP-102549,PmPrIr2,-0.68589,0.0,na,0.0,,,,,
JVASP-100726,LaLuIn2,-0.46387,0.0,na,0.0066,,,,,
JVASP-103015,Dy2Co2I,-0.6746,0.0,na,0.0,,,,,
JVASP-18671,ThCo,-0.41957,0.0,na,0.0,,,,,
JVASP-103799,H4C4SO,-0.10316,1.842,na,0.2512,,,,,
JVASP-102934,EuGaAu2,-0.68899,0.0,na,0.0,,,,,
JVASP-15062,YCu5,-0.22038,0.0,na,0.0,,,,,
JVASP-103926,ZnH14C9O4,-0.41294,4.569,na,0.097,,,,,
JVASP-101188,HfTaN2,-1.49065,0.0,na,0.1321,,,,,
JVASP-100592,RbCoO2,-1.23598,0.0,na,0.0767,,,,,
JVASP-15287,CaAsAu,-0.91897,0.0,na,0.0,,,,,
JVASP-101528,Li2MnCoO4,-1.8589,0.0,na,0.0453,,,,,
JVASP-15507,YTiGe,-0.72683,0.0,na,0.0,,,,,
JVASP-104773,Rb3SbF6,-2.63454,3.714,na,0.074,,,,,
JVASP-104620,TbErHg2,-0.40006,0.0,0.0,0.0,,,,,
JVASP-102408,Rb2PrAgI6,-1.22992,2.62,3.309,0.0,,,,,
JVASP-101390,Be3Rh,-0.42298,0.0,na,0.0,,,,,
JVASP-101023,Tb3Y,0.00859,0.0,0.0,0.011,,,,,
JVASP-101908,ZnH6C5O4,-0.63967,4.745,na,0.1204,,,,,
JVASP-103574,Rb3YF6,-3.46698,5.859,9.378,0.0021,,,,,
JVASP-103672,VCr,-0.06513,0.0,na,0.0323,,,,,
JVASP-18850,PrAgSn,-0.63604,0.0,0.0,0.0,,,,,
JVASP-101244,Sr2CaN2,-0.74401,0.0,na,0.0731,,,,,
JVASP-103355,DyH3,-0.41941,0.0,2.08,0.2501,,,,,
JVASP-100928,Rb2ScInF6,-3.22313,3.732,3.679,0.0208,,,,,
JVASP-103164,K2LiNdBr6,-1.81521,3.994,na,0.0666,,,,,
JVASP-28839,TeWS,-0.34744,0.282,na,0.2437,,,,,
JVASP-48368,LiCo5O3F5,-1.48442,0.0,na,0.1616,,,,,
JVASP-2931,Al2Te5,-0.35621,1.055,1.547,0.0,,,,,
JVASP-15577,Nb2SnC,-0.42101,0.0,na,0.0,,,,,
JVASP-106278,Th2CuTc,-0.11374,0.0,na,0.0471,,,,,
JVASP-103729,BaGa3Sn,-0.47081,0.0,na,0.0,,,,,
JVASP-104718,Mn6PtRh,0.01934,0.0,na,0.114,,,,,
JVASP-49852,BaCa2I6,-1.69894,3.445,4.257,0.0791,,,,,
JVASP-104894,CeTl,-0.26452,0.0,na,0.0,,,,,
JVASP-102262,Rb2TlAuF6,-2.04265,0.0,na,0.063,,,,,
JVASP-2340,Sr2PdO3,-2.30145,0.254,0.215,0.0,,,,,
JVASP-101803,H4C6S,0.07589,1.261,na,0.1748,,,,,
JVASP-102310,CrMoO4,-2.14996,0.0,na,0.0,,,,,
JVASP-100815,Nb3Pd,-0.16548,0.0,na,0.0146,,,,,
JVASP-15140,TbSi2Rh2,-1.061,0.0,0.0,0.0,,,,,
JVASP-103624,Pm2CoRu,-0.12177,0.0,na,0.0,,,,,
JVASP-102451,Al3Sn,0.15277,0.0,0.0,0.1528,,,,,
JVASP-104525,Na2ScCuCl6,-1.61501,1.85,na,0.133,,,,,
JVASP-101728,Er3Mg,-0.03033,0.0,na,0.0085,,,,,
JVASP-101947,CdH4C4O4,-0.69894,3.746,na,0.13,,,,,
JVASP-102248,VCl2O,-1.70531,0.346,na,0.0,,,,,
JVASP-105107,C3N4,0.42665,0.0,na,0.4369,,,,,
JVASP-104669,YZrS2,-1.85446,0.0,na,0.0345,,,,,
JVASP-101081,Y2Mg3Zn3,-0.32046,0.0,0.0,0.0,,,,,
JVASP-101854,HC3S2NO,0.0597,0.627,na,0.3808,,,,,
JVASP-102142,DyMgGa,-0.51029,0.0,na,0.0,,,,,
JVASP-103278,MgNbOs2,-0.14712,0.0,0.0,0.0,,,,,
JVASP-104106,H3C7NO,-0.05673,2.031,na,0.2366,,,,,
JVASP-51196,ReW2Br,0.97028,0.0,na,1.3708,,,,,
JVASP-103466,LaAl2Pt3,-1.13155,0.0,na,0.0029,,,,,
JVASP-15799,Li3Tl,-0.25195,0.0,na,0.0,,,,,
JVASP-18480,PuClO,-2.9647,0.0,na,0.0,,,,,
JVASP-12126,NbS3,-0.86685,0.355,na,0.0,,,,,
JVASP-102188,Pr2Tl3In3,-0.39814,0.0,na,0.0074,,,,,
JVASP-101676,Y2USe3,-1.61672,0.0,na,0.0,,,,,
JVASP-102935,ErTmCd2,-0.33779,0.0,na,0.0,,,,,
JVASP-101391,CaPmAg2,-0.3699,0.0,na,0.0,,,,,
JVASP-101986,H4C5,0.00817,2.982,na,0.1268,,,,,
JVASP-103084,InSb,-0.00336,0.0,0.0,0.0903,,,,,
JVASP-101190,HfNbB4,-0.83083,0.0,na,0.0062,,,,,
JVASP-103016,RbO,-0.85951,0.009,0.0,0.3472,,,,,
JVASP-15509,PrCo2P2,-0.96632,0.0,na,0.0,,,,,
JVASP-18753,NdTlPd,-0.66518,0.0,na,0.0,,,,,
JVASP-18455,NaSnS2,-0.80913,0.0,na,0.0221,,,,,
JVASP-102808,Al3Ni2Pt,-0.75479,0.0,0.0,0.0379,,,,,
JVASP-101731,CrFeSb4,0.05635,0.0,na,0.0649,,,,,
JVASP-43023,Li2V3SbO8,-2.29679,0.0,na,0.0727,,,,,
JVASP-101246,Sr2CoN2,-0.71771,0.0,na,0.0,,,,,
JVASP-103167,K2RbRhF6,-2.45621,2.231,na,0.07,,,,,
JVASP-105341,YbSm3S4,-2.24823,0.0,na,0.0,,,,,
JVASP-14606,Ag,0.0,0.0,0.0,0.0,,,,,
JVASP-101529,Dy2CuO4,-2.94303,0.0,na,0.0,,,,,
JVASP-15624,ErFe2Si2,-0.66959,0.0,na,0.0,,,,,
JVASP-102263,Rb2AgMoCl6,-1.33094,0.981,na,0.0128,,,,,
JVASP-102652,ZnIn2Cu2S5,-0.6083,0.033,na,0.003,,,,,
JVASP-102311,CSN3,0.38975,1.124,na,0.4032,,,,,
JVASP-102409,Rb2CeAgI6,-1.21434,0.156,na,0.0273,,,,,
JVASP-43884,Li3FeF6,-2.71313,0.0,0.0,0.1079,,,,,
JVASP-105189,YbLa3,-0.01994,0.0,na,0.0,,,,,
JVASP-103472,InGaAs2,-0.24531,0.0,na,0.028,,,,,
JVASP-11996,HfSiTe,-0.68768,0.0,na,0.0,,,,,