jid,formula,formation_energy_per_atom,optb88vdw_bandgap,mbj_bandgap,ehull,spacegroup_number,natoms,volume,bulk_modulus_kv,shear_modulus_gv
JVASP-92865,BaMg6Mo,0.34121,0.0,na,0.4198,,,,,
JVASP-108099,MnCrNi4Sn2,-0.06982,0.0,na,0.0625,,,,,
JVASP-71854,Mn2BeW,-0.12195,0.0,0.0,0.1054,,,,,
JVASP-95719,YbBeF4,-3.84765,6.772,na,0.0651,,,,,
JVASP-74248,Be2SiOs,-0.18119,0.0,na,0.0001,,,,,
JVASP-107908,CeErIn2,-0.42919,0.0,na,0.0,,,,,
JVASP-106068,HfTaB2,-0.74691,0.0,na,0.025,,,,,
JVASP-74638,LiBe2Mo,0.37791,0.0,0.0,0.599,,,,,
JVASP-96082,Sn4SI6,-0.54024,1.406,na,0.0,,,,,
JVASP-22732,CsK2Bi,-0.49205,0.62,1.398,0.0,,,,,
JVASP-92524,CrPbO3,-1.71386,0.0,na,0.0729,,,,,
JVASP-51048,FeCu2SnS4,-0.38598,0.0,0.0,0.0756,,,,,
JVASP-15988,HfGeSe,-0.95889,0.0,0.0,0.0,,,,,
JVASP-75015,BeTcBi2,0.84817,0.0,na,0.9303,,,,,
JVASP-92330,ThCu2Si2,-0.52642,0.0,na,0.0001,,,,,
JVASP-74333,Be2BiP,0.28838,0.0,na,0.4175,,,,,
JVASP-72012,BeReOs2,0.23359,0.0,0.0,0.368,,,,,
JVASP-91268,Na3CoN6O12,-0.76579,2.397,na,0.0752,,,,,
JVASP-94386,MgZn,-0.01924,0.0,na,0.0897,,,,,
JVASP-93203,Mg6TiBi,0.04919,0.0,na,0.1327,,,,,
JVASP-92701,Er2Mg2Ru,-0.29455,0.0,na,0.0,,,,,
JVASP-96520,Dy3CuGeS7,-1.57665,1.714,na,0.0,,,,,
JVASP-74382,Be2GePt,-0.06905,0.0,na,0.4001,,,,,
JVASP-92659,Hf2SN2,-1.89134,2.163,na,0.0488,,,,,
JVASP-74199,ScBe2In,0.26956,0.0,na,0.5544,,,,,
JVASP-95051,Zr,0.0166,0.0,na,0.0,,,,,
JVASP-3150,Ac2O3,-3.58289,3.765,5.331,0.0,,,,,
JVASP-94876,SiSnPd5,-0.55294,0.0,na,0.0,,,,,
JVASP-74916,BeSiOs,0.15917,0.0,na,0.3917,,,,,
JVASP-74292,TaBe2P,-0.25026,0.0,na,0.2644,,,,,
JVASP-94108,Mg6NiC,0.18416,0.0,na,0.2749,,,,,
JVASP-94154,Mg6CoMo,0.28161,0.0,na,0.2972,,,,,
JVASP-71635,BeInFe2,0.24417,0.0,0.0,0.3477,,,,,
JVASP-74249,Be2SbSe,0.45825,0.0,na,0.9234,,,,,
JVASP-74816,TaBePd2,-0.11799,0.0,0.0,0.3417,,,,,
JVASP-74724,YBe2Ir,-0.01951,0.0,na,0.5191,,,,,
JVASP-44418,Na3CrBAsO7,-2.00669,1.226,na,0.0516,,,,,
JVASP-74679,BeCdBi2,0.53416,0.0,na,0.5366,,,,,
JVASP-74459,BeIn2Pd,0.13924,0.0,na,0.4447,,,,,
JVASP-74967,NaBeBr2,-0.31477,0.0,1.718,0.9387,,,,,
JVASP-99089,K2MnP2S6,-0.75934,0.959,na,0.0148,,,,,
JVASP-94348,Mg5Sn,-0.05401,0.0,na,0.0744,,,,,
JVASP-92469,SrNiO3,-1.74401,0.0,na,0.0412,,,,,
JVASP-2088,BaS3,-1.22932,1.462,2.407,0.0,,,,,
JVASP-14806,Be2Ag,0.03744,0.0,0.0,0.0374,,,,,
JVASP-15651,LaSi2Ni2,-0.75824,0.0,na,0.0,,,,,
JVASP-71961,NaBeV,0.63022,0.0,na,0.7354,,,,,
JVASP-91346,Tl4SiSe4,-0.46159,1.541,na,0.0,,,,,
JVASP-96982,Sr2MnWO6,-2.71864,0.0,na,0.0,,,,,
JVASP-52817,LiAl3Si9N14O2,-1.45456,4.136,na,0.0516,,,,,
JVASP-74499,Ca2BeIn,-0.08002,0.0,na,0.2827,,,,,
JVASP-91431,KUCrO6,-2.65939,0.776,na,0.0,,,,,
JVASP-3909,SnSb2Te4,-0.18218,0.201,na,0.0044,,,,,
JVASP-15703,BaSb3,-0.5966,0.0,na,0.0,,,,,
JVASP-95220,Ca2B3H13O13,-1.73899,5.501,na,0.0,,,,,
JVASP-93152,CeMg6W,0.2124,0.0,na,0.2898,,,,,
JVASP-74775,NaBe2Pb,0.66712,0.0,na,0.7491,,,,,
JVASP-94789,CaZn,0.27648,0.0,na,0.614,,,,,
JVASP-96923,Rb2MnO4,-1.89553,0.0,na,0.0,,,,,
JVASP-92754,SmAgO3,-1.52385,0.0,na,0.4026,,,,,
JVASP-71747,BeCoBr2,0.49263,0.0,0.0,1.2972,,,,,
JVASP-74334,Be2MoSe,0.14622,0.0,na,0.7218,,,,,
JVASP-93070,NaMg6Mo,0.21443,0.0,na,0.216,,,,,
JVASP-95376,Bi3ClO4,-1.39317,0.869,2.162,0.0,,,,,
JVASP-107910,DyPa3,0.06592,0.0,na,0.1353,,,,,
JVASP-71691,TaBeCl2,0.61912,0.0,na,1.7385,,,,,
JVASP-92403,ErRh3C,-0.56072,0.0,na,0.0,,,,,
JVASP-74680,Be2InRh,-0.09026,0.0,na,0.2795,,,,,
JVASP-74918,Be2FeOs,-0.0718,0.0,na,0.1299,,,,,
JVASP-74639,Be2CrCd,0.54659,0.0,na,0.7061,,,,,
JVASP-43142,LiV3O8,-2.41026,1.418,1.826,0.0271,,,,,
JVASP-74868,KBeGe2,0.59762,0.0,0.0,0.5998,,,,,
JVASP-46728,Li4Mn3SbP4O16,-2.10462,0.0,na,0.0879,,,,,
JVASP-74968,BeNb4Rh,0.42709,0.0,na,0.6592,,,,,
JVASP-15493,SmBRh3,-0.74296,0.0,0.0,0.0,,,,,
JVASP-94828,NaMn2O4,-1.89294,0.0,na,0.0014,,,,,
JVASP-71915,MgBeFe2,0.17319,0.0,na,0.2754,,,,,
JVASP-74726,KBe2Os,0.56432,0.0,na,0.5665,,,,,
JVASP-94922,PdBr4N2,1.39495,0.0,na,1.5268,,,,,
JVASP-105780,InAgAu2,-0.10597,0.0,na,0.0167,,,,,
JVASP-94993,LiCuPO4,-1.89494,0.234,na,0.0351,,,,,
JVASP-43094,Ti3TeO8,-2.56865,3.189,3.834,0.1618,,,,,
JVASP-74818,BeGe4Sb,0.69267,0.0,na,0.6927,,,,,
JVASP-92911,Mg6BMo,0.47757,0.0,na,0.5907,,,,,
JVASP-105919,NbGaPb2O6,-1.98237,2.814,na,0.0134,,,,,
JVASP-106146,BaLaCrMoO6,-2.74802,0.0,na,0.0904,,,,,
JVASP-74598,Ca2BeTl,-0.05837,0.0,0.0,0.2345,,,,,
JVASP-2160,FeAs2,-0.252,0.24,na,0.0,,,,,
JVASP-20069,V3S4,-1.10297,0.0,na,0.0,,,,,
JVASP-15274,DyCoC2,-0.43525,0.0,0.0,0.0,,,,,
JVASP-92333,SmTiO3,-3.29251,0.0,na,0.1177,,,,,
JVASP-14585,TmSb,-1.1148,0.0,0.0,0.0,,,,,
JVASP-92660,Ce2SeN2,-1.79958,1.044,na,0.0,,,,,
JVASP-96861,TiSnSb,-0.31886,0.0,na,0.0074,,,,,
JVASP-105704,NaHF2,-2.26036,6.874,11.65,0.0758,,,,,
JVASP-74418,Be2CrIn,0.43077,0.0,0.0,0.5891,,,,,
JVASP-15193,HoZrSb,-0.79047,0.0,na,0.0,,,,,
JVASP-105987,TaPd,-0.14448,0.0,na,0.2146,,,,,
JVASP-105655,Rb2CuAsF6,-2.30025,1.142,1.157,0.0201,,,,,
JVASP-14745,Nd,0.12803,0.0,0.0,0.0,,,,,
JVASP-74777,KBe2Co,1.29263,0.0,na,1.542,,,,,
JVASP-74460,Be2PPd,-0.16831,0.0,na,0.2137,,,,,
JVASP-92283,LaNi2Ge2,-0.70147,0.0,na,0.0,,,,,
JVASP-93737,FeSb2,0.21236,0.0,na,0.2295,,,,,
JVASP-15316,LaFe2Si2,-0.61845,0.0,na,0.0,,,,,
JVASP-95529,Ba2U2O7,-3.47434,0.459,na,0.0248,,,,,
JVASP-71641,BeOs2Pd,0.3355,0.0,na,0.6156,,,,,
JVASP-92866,Mg6NbBi,0.12328,0.0,na,0.2067,,,,,
JVASP-15680,Na2Ti2Sb2O,-1.16984,0.0,0.0,0.0,,,,,
JVASP-75016,BeSbBr2,0.54751,0.0,0.0,1.3492,,,,,
JVASP-17345,AlCuO3,-0.61741,0.0,na,1.3332,,,,,
JVASP-91215,LuTaO4,-3.53318,4.081,5.34,0.0027,,,,,
JVASP-106069,Hf3N2,-1.60861,0.0,na,0.0,,,,,
JVASP-48272,LiCo2O4,-1.41859,0.0,na,0.0737,,,,,
JVASP-74640,Be2NiRh,-0.5401,0.0,na,0.0446,,,,,
JVASP-74545,TaBe2Hg,0.58743,0.0,0.0,0.7809,,,,,
JVASP-99266,Cu8O,-0.06438,0.0,na,0.1103,,,,,
JVASP-107918,CeTmIn2,-0.41404,0.0,na,0.0,,,,,
JVASP-93337,CaMnGe,-0.36271,0.0,na,0.1375,,,,,
JVASP-93778,TiS2,-1.26554,0.0,na,0.1619,,,,,
JVASP-93443,Fe2Sn,0.23559,0.0,na,0.238,,,,,
JVASP-94387,Mg2Zn,-0.02554,0.0,na,0.0471,,,,,
JVASP-93205,LiMg6W,0.14713,0.0,na,0.2477,,,,,
JVASP-74293,ZrBe2Pd,-0.20596,0.0,na,0.2506,,,,,
JVASP-96526,SnSe2Cl8O2,-0.65658,2.535,na,0.0,,,,,
JVASP-93276,TmNi2P2,-0.98339,0.0,na,0.0,,,,,
JVASP-91493,Cu2SeO4,-0.73191,0.0,na,0.0203,,,,,
JVASP-49962,KHoO2,-3.04443,4.06,5.864,0.0,,,,,
JVASP-74336,CaBe2Ir,0.24672,0.0,na,0.6303,,,,,
JVASP-93506,NdNi5,-0.31661,0.0,na,0.0206,,,,,
JVASP-93379,BPt2,-0.14896,0.0,na,0.0,,,,,
JVASP-94877,CrRh2Se4,-0.3776,0.0,na,0.0479,,,,,
JVASP-15820,SnP,-0.03875,0.0,na,0.0239,,,,,
JVASP-22683,YAgSe2,-1.25167,0.62,1.21,0.0332,,,,,
JVASP-92471,Li2CrO2,-1.81399,0.0,na,0.2115,,,,,
JVASP-50367,LiFeS2,-0.83918,0.0,0.0,0.1151,,,,,
JVASP-74728,Be2SiPd,-0.07936,0.0,na,0.2441,,,,,
JVASP-95052,YbAlB4,-0.23245,0.0,na,0.222,,,,,
JVASP-93153,LaMg6Si,-0.0437,0.0,na,0.1772,,,,,
JVASP-72013,BeZnCr2,0.23881,0.0,na,0.3173,,,,,
JVASP-93826,UAsP,-0.81137,0.0,na,0.0005,,,,,
JVASP-93876,ThSiS,-1.43096,0.0,na,0.0,,,,,
JVASP-74461,BeNbSb,0.50119,0.0,na,0.7655,,,,,
JVASP-93675,HfGe2,-0.45044,0.0,na,0.0245,,,,,
JVASP-21204,K,0.00024,0.0,14.582,0.0,,,,,
JVASP-92284,SrZrO3,-3.5306,3.415,na,0.0627,,,,,
JVASP-93072,NaMg6W,0.20713,0.0,na,0.2783,,,,,
JVASP-91269,ErMnO3,-2.88721,0.0,na,0.0,,,,,
JVASP-74200,Be2FeGe,-0.04508,0.0,na,0.1566,,,,,
JVASP-74779,Be2InRe,0.39898,0.0,0.0,0.6691,,,,,
JVASP-1798,KNa2Sb,-0.52427,0.92,1.933,0.0,,,,,
JVASP-71856,BeCo2Rh,-0.06449,0.0,0.0,0.2408,,,,,
JVASP-43144,FeNi3P4O16,-1.65566,0.0,na,0.0207,,,,,
JVASP-92608,NaVF3,-2.64911,0.0,na,0.1652,,,,,
JVASP-92525,YbMg2Bi2,-0.60437,0.482,na,0.0,,,,,
JVASP-12055,MnCo3O8,-1.16841,0.0,na,0.0912,,,,,
JVASP-14566,DyS,-2.14212,0.0,na,0.0,,,,,
JVASP-14644,Pd,0.0,0.0,0.0,0.0,,,,,
JVASP-74819,Be2GaGe,0.48316,0.0,na,0.4842,,,,,
JVASP-94109,Mg6NiSn,-0.03666,0.0,na,0.1499,,,,,
JVASP-94156,HfMg6Cu,0.10857,0.0,na,0.1672,,,,,
JVASP-105920,LiMg2Pb,-0.09206,0.0,na,0.1227,,,,,
JVASP-92334,SmFeO3,-2.50461,0.0,na,0.0951,,,,,
JVASP-15227,Ge2Sb2Te5,-0.09939,0.041,na,0.0224,,,,,
JVASP-96084,Ba2CaMgAl2F14,-3.97154,7.69,na,0.0,,,,,
JVASP-94262,LaP3,-0.43646,0.0,na,0.4884,,,,,
JVASP-14599,Tc,1e-05,0.0,0.0,0.0,,,,,
JVASP-94790,MgAl3,-0.01519,0.0,na,0.0171,,,,,
JVASP-94923,SnPPt5,-0.33006,0.0,na,0.0241,,,,,
JVASP-105847,Pr3Hf,0.19338,0.0,na,0.2031,,,,,
JVASP-93927,Zr2Si,-0.73676,0.0,na,0.0,,,,,
JVASP-48740,Li2VO2F,-2.67635,0.0,na,0.0575,,,,,
JVASP-74500,CaBe2Fe,0.64168,0.0,na,0.8476,,,,,
JVASP-92702,BaSi3Pd,-0.46795,0.0,na,0.0,,,,,
JVASP-71809,Mn2BeNi,-0.05238,0.0,na,0.1814,,,,,
JVASP-71748,Be2Ni2Mo,0.08822,0.0,na,0.4622,,,,,
JVASP-74641,Be2TcGe,0.00036,0.0,0.0,0.1821,,,,,
JVASP-48502,LiCo2OF3,-1.80512,0.0,0.0,0.1579,,,,,
JVASP-99090,KClO4,-0.57863,5.414,7.982,0.1253,,,,,
JVASP-92755,SmMnO3,-2.69831,0.0,na,0.1407,,,,,
JVASP-94293,SmSi2,-0.53251,0.0,na,0.0,,,,,
JVASP-72016,BeReCl2,1.10153,0.0,0.0,2.2209,,,,,
JVASP-92404,YP2Ru2,-0.99789,0.0,na,0.0,,,,,
JVASP-91432,SiHg3S2F6,-1.7595,2.82,4.665,0.0,,,,,
JVASP-93220,SrMoO3,-2.6628,0.0,na,0.0,,,,,
JVASP-108101,MgZnCu,-0.21757,0.0,0.0,0.0,,,,,
JVASP-74201,Ca2TaBe,0.85582,0.0,na,0.9646,,,,,
JVASP-14090,Li2CeSb2,-0.72742,0.0,na,0.1003,,,,,
JVASP-18420,NbO2,-2.31287,0.0,na,0.3083,,,,,
JVASP-75017,Be2ReRu,0.01506,0.0,na,0.3038,,,,,
JVASP-74780,BeVRe,0.20056,0.0,na,0.5339,,,,,
JVASP-95230,KH3Se2O6,-1.08517,4.459,na,0.0095,,,,,
JVASP-74681,MgBe2Os,0.12055,0.0,na,0.1288,,,,,
JVASP-48132,Fe4O5F3,-1.66117,0.0,na,0.0762,,,,,
JVASP-95728,ThMn4Cu3O12,-1.87194,0.0,na,0.0136,,,,,
JVASP-91347,Ho2Ni12P7,-0.74663,0.0,na,0.0,,,,,
JVASP-74869,SrBeHg2,0.15243,0.0,na,0.4339,,,,,
JVASP-96924,Na2NiH8S2O12,-1.31179,1.559,na,0.0,,,,,
JVASP-14665,SmTe,-1.41693,0.0,0.72,0.0,,,,,
JVASP-96791,H10C3NClO,-0.24175,5.38,na,0.2279,,,,,
JVASP-74969,Be2CrBi,0.70094,0.0,0.0,0.858,,,,,
JVASP-18917,TmCo2,-0.30321,0.0,na,0.0,,,,,
JVASP-18585,InAg3,-0.01937,0.0,na,0.005,,,,,
JVASP-107995,TlRh3,0.16065,0.0,na,0.1606,,,,,
JVASP-74337,SrBe2Nb,0.91545,0.0,na,1.104,,,,,
JVASP-92473,Na2NiO2,-1.25259,0.737,na,0.1164,,,,,
JVASP-74600,MnBe2Cl,0.25548,0.0,na,0.9474,,,,,
JVASP-74820,Be2PPd,-0.0693,0.0,na,0.3127,,,,,
JVASP-92867,Mg6NbC,0.25413,0.0,na,0.3896,,,,,
JVASP-92286,K2PdS2,-1.04169,1.169,na,0.0,,,,,
JVASP-92912,Mg6CrC,0.20353,0.0,na,0.2352,,,,,
JVASP-43153,Li9Co2O8,-1.73277,0.0,na,0.1832,,,,,
JVASP-71857,HfBe2W,0.02185,0.0,na,0.3279,,,,,
JVASP-74920,Be2MoP,-0.02889,0.0,0.0,0.317,,,,,
JVASP-95054,CeTiGe,-0.54491,0.0,na,0.0593,,,,,
JVASP-93277,Fe3NiN,1.82675,0.0,na,1.9714,,,,,
JVASP-71962,BeTeP2,0.55128,0.0,na,0.7628,,,,,
JVASP-14807,Pa,0.02068,0.0,na,0.0,,,,,
JVASP-94349,Mg2Sn,-0.03928,0.0,na,0.2175,,,,,
JVASP-74642,La2MgBe,0.11119,0.0,na,0.1785,,,,,
JVASP-43156,Li4Cr3Sn3Sb2O16,-1.89893,0.016,na,0.0652,,,,,
JVASP-74419,SrLi2Be,0.33786,0.0,na,0.3593,,,,,
JVASP-71693,BeCo2Ir,-0.13394,0.0,0.0,0.1031,,,,,
JVASP-105781,LaZnO3,-2.35822,0.0,na,0.1393,,,,,
JVASP-106147,LiMg2Ir,-0.42469,0.0,0.0,0.0,,,,,
JVASP-105656,Na2LiLuCl6,-1.98264,4.101,na,0.131,,,,,
JVASP-74729,Be2TlPt,0.25421,0.0,na,0.5963,,,,,
JVASP-107919,ErLuCu2,-0.35782,0.0,na,0.0,,,,,
JVASP-93380,CeRu2,-0.29194,0.0,na,0.0,,,,,
JVASP-74870,LaMnBe2,0.41486,0.0,na,0.5912,,,,,
JVASP-2178,NaS,-0.96912,1.278,2.757,0.0,,,,,
JVASP-93877,UPt5,-0.57259,0.0,na,0.0,,,,,
JVASP-15652,CeMnSi2,-0.5478,0.0,na,0.0,,,,,
JVASP-19936,OsO2,-1.08328,0.0,0.0,0.0,,,,,
JVASP-93507,CeAl3Pd2,-0.81216,0.0,na,0.0,,,,,
JVASP-71642,BeNi2Pb,0.24958,0.0,na,0.4833,,,,,
JVASP-92335,NaVO3,-2.3265,0.069,na,0.0,,,,,
JVASP-93206,Mg6TiSb,-0.00873,0.0,na,0.1431,,,,,
JVASP-74684,Sc2TaBe,0.28045,0.0,na,0.3809,,,,,
JVASP-15821,Cu3P,0.03301,0.0,na,0.0795,,,,,
JVASP-18708,ScGaPd2,-0.86263,0.0,0.0,0.0,,,,,
JVASP-3153,LiZnPS4,-0.72593,2.864,3.422,0.0,,,,,
JVASP-74970,K2BePd,0.45015,0.0,na,0.7346,,,,,
JVASP-94111,Mg6VNi,0.18055,0.0,na,0.2709,,,,,
JVASP-74204,BeCuOs,0.14387,0.0,na,0.2167,,,,,
JVASP-94388,MgZn2,-0.01393,0.0,na,0.122,,,,,
JVASP-74462,Be2TcW,-0.07241,0.0,na,0.2311,,,,,
JVASP-74821,BeCd4Te,0.49943,0.0,na,0.6471,,,,,
JVASP-92566,SmSi3Os,-0.56786,0.0,na,0.0,,,,,
JVASP-15494,DyMn2Si2,-0.56404,0.0,0.0,0.0,,,,,
JVASP-94924,Ce2FeSe2O2,-2.21094,0.0,na,0.1354,,,,,
JVASP-94519,NdNiGe2,-0.74443,0.0,na,0.0,,,,,
JVASP-15704,CaMn2P2,-0.71521,0.0,0.0,0.0309,,,,,
JVASP-96087,Na4CO4,-1.54238,1.406,na,0.1706,,,,,
JVASP-93827,LuGa2,-0.56227,0.0,na,0.0,,,,,
JVASP-74338,LiBe2Pt,-0.26526,0.0,na,0.3009,,,,,
JVASP-74871,SrBeCl4,-0.26685,0.0,na,1.7928,,,,,
JVASP-92405,YbCo2Ge2,-0.5886,0.0,na,0.0,,,,,
JVASP-106072,Ga2S3,-0.72953,1.443,3.101,0.0007,,,,,
JVASP-93676,NdSiGe,-0.57925,0.0,na,0.0602,,,,,
JVASP-92287,FeBiO3,-1.32401,0.0,na,0.0827,,,,,
JVASP-94994,Rb2NiF4,-2.4867,0.455,na,0.0,,,,,
JVASP-74546,ScBeBr2,-0.08134,0.0,0.0,1.0619,,,,,
JVASP-74922,BeIn2Sb,0.509,0.0,na,0.5572,,,,,
JVASP-15399,La3AlN,-0.86331,0.0,na,0.0,,,,,
JVASP-94157,HfMg6Cu,0.09427,0.0,na,0.1529,,,,,
JVASP-96866,TlPH2O4,-1.5946,4.375,na,0.0,,,,,
JVASP-93738,LuSn2,-0.50135,0.0,na,0.0,,,,,
JVASP-95531,MgAl2O4,-3.17733,5.568,6.961,0.0903,,,,,
JVASP-94878,MnCr2S4,-0.67911,0.0,na,0.0622,,,,,
JVASP-44027,LiMnF4,-2.7519,0.726,na,0.0199,,,,,
JVASP-71860,TaBeCu2,0.25044,0.0,na,0.3509,,,,,
JVASP-74730,BeSbMo,0.64572,0.0,na,0.793,,,,,
JVASP-42887,LiZnAg2,-0.20205,0.0,na,0.0,,,,,
JVASP-94830,Pr2Fe2Si2C,-0.6152,0.0,na,0.0,,,,,
JVASP-95378,Zr2V6Sb9,-0.23808,0.0,na,0.0331,,,,,
JVASP-99267,HgAs2O6,-1.04151,0.741,2.4,0.0001,,,,,
JVASP-105705,O,-0.01178,0.938,2.223,0.0,,,,,
JVASP-93338,SmCo2,-0.14527,0.0,na,0.0,,,,,
JVASP-15745,LuSi2Pt2,-0.90817,0.0,na,0.0414,,,,,
JVASP-93779,TiCu2,-0.11652,0.0,na,0.0099,,,,,
JVASP-96527,ZnTe6O13,-1.17002,3.104,na,0.0,,,,,
JVASP-92868,Mg6CrCd,0.11803,0.0,na,0.1583,,,,,
JVASP-105988,Ta4SeS,-0.5308,0.0,na,0.0312,,,,,
JVASP-91216,SrSnO3,-2.42613,1.782,3.145,0.0114,,,,,
JVASP-74645,SrBe2Cu,0.60086,0.0,na,0.7394,,,,,
JVASP-71918,TaBeGa2,-0.0597,0.0,0.0,0.1151,,,,,
JVASP-15561,PrB2Rh3,-0.63836,0.0,na,0.0,,,,,
JVASP-92474,VS2,-0.96513,0.0,na,0.0002,,,,,
JVASP-96792,K6NaAu2IO8,-1.28213,1.98,na,0.0,,,,,
JVASP-92757,LaAgO3,-1.73053,0.0,na,0.2195,,,,,
JVASP-71963,Mg2BeOs,0.18125,0.0,na,0.1854,,,,,
JVASP-93073,NaMg6C,0.23998,0.0,na,0.2419,,,,,
JVASP-96925,Fe7S8,-0.48667,0.0,na,0.1054,,,,,
JVASP-43175,Li4Fe3O8,-1.78882,0.015,0.0,0.0604,,,,,
JVASP-92609,RbMnF3,-2.7138,1.643,na,0.0125,,,,,
JVASP-91495,Na2Li3FeO4,-1.82589,1.221,na,0.0,,,,,
JVASP-93444,MnNiGe,0.13885,0.0,na,0.3546,,,,,
JVASP-92661,Dy2BiO2,-2.87439,0.0,na,0.0,,,,,
JVASP-93381,HoFe2,-0.15717,0.0,na,0.0,,,,,
JVASP-74463,BeCrW,0.29243,0.0,0.0,0.5827,,,,,
JVASP-18409,NiH,0.01329,0.0,0.0,0.014,,,,,
JVASP-93156,LiMg6Bi,-0.0801,0.0,na,0.1,,,,,
JVASP-74339,Be2VOs,-0.07748,0.0,na,0.1407,,,,,
JVASP-92337,SmVO3,-2.97424,0.0,na,0.1747,,,,,
JVASP-14808,Pr,0.12202,0.0,na,0.0,,,,,
JVASP-74547,HfBeBi2,0.43439,0.0,na,0.6025,,,,,
JVASP-71753,BeRhBr2,0.48006,0.0,0.0,1.2817,,,,,
JVASP-93221,ThCr2Si2,-0.35288,0.0,na,0.0834,,,,,
JVASP-92703,DySi3Ir,-0.71054,0.0,na,0.0,,,,,
JVASP-93928,PtO2,-0.63533,0.656,na,0.0,,,,,
JVASP-105848,Pr3Mg,-0.01991,0.0,0.0,0.0425,,,,,
JVASP-94792,CrAs,-0.14316,0.0,0.0,0.0,,,,,
JVASP-98965,BaLiSb,-1.0261,0.749,1.163,0.0,,,,,
JVASP-93878,YbCuPb,-0.40037,0.0,na,0.056,,,,,
JVASP-74781,MnBe2Os,-0.11772,0.0,0.0,0.0586,,,,,
JVASP-92913,Mg6NbGa,0.08042,0.0,na,0.1665,,,,,
JVASP-91270,YbMnO3,-2.47733,0.0,na,0.2705,,,,,
JVASP-91348,NbBr5,-0.8864,1.406,na,0.0,,,,,
JVASP-14711,FeAs,-0.18607,0.0,0.0,0.0038,,,,,
JVASP-74872,BeMo2Pt,0.20853,0.0,na,0.4984,,,,,
JVASP-18468,K2OsBr6,-0.94784,0.0,0.0,0.0,,,,,
JVASP-92288,VPbO3,-2.04739,0.0,na,0.0605,,,,,
JVASP-99099,SiO2,-2.10733,1.313,na,0.7939,,,,,
JVASP-74731,MgBe2Nb,0.13602,0.0,na,0.3246,,,,,
JVASP-105782,Li2AgGe,-0.27187,0.0,na,0.0193,,,,,
JVASP-42646,Mn3O2F4,-2.19552,0.072,na,0.0,,,,,
JVASP-71864,BeGa2W,0.13249,0.0,na,0.3083,,,,,
JVASP-75019,BeReCl4,1.56743,0.0,0.0,2.6179,,,,,
JVASP-43180,Cr3NiP4O16,-2.04419,0.005,na,0.0275,,,,,
JVASP-18710,Ti2Ga,-0.39396,0.0,na,0.0,,,,,
JVASP-92526,BaSn3Au,-0.54471,0.0,na,0.0,,,,,
JVASP-107996,Ti3N2,-1.5966,0.0,na,0.0151,,,,,
JVASP-71810,BeZnIr2,-0.01921,0.0,0.0,0.235,,,,,
JVASP-93278,HoCo2B2,-0.60513,0.0,na,0.0,,,,,
JVASP-74501,Sc4BeTc,0.65028,0.0,0.0,0.7751,,,,,
JVASP-94389,Mg2Zn,-0.02601,0.0,na,0.0466,,,,,
JVASP-96984,CaV3O7,-2.70847,0.789,na,0.0626,,,,,
JVASP-95056,SmCuPb,-0.39027,0.0,na,0.0441,,,,,
JVASP-72017,LiBeCr2,0.31651,0.0,0.0,0.3953,,,,,
JVASP-92475,CrS2,-0.58855,0.0,na,0.081,,,,,
JVASP-94350,Mg2Sn,-0.03398,0.0,na,0.2228,,,,,
JVASP-44330,Li4FeO3F,-2.09375,0.915,na,0.136,,,,,
JVASP-71965,Be2SiW,0.26672,0.0,na,0.5821,,,,,
JVASP-105921,NpGa5Rh,-0.36646,0.0,0.0,0.0056,,,,,
JVASP-18843,Zr2Sb,-0.6307,0.0,na,0.0,,,,,
JVASP-3912,AcBr3,-2.18616,4.186,5.15,0.0,,,,,
JVASP-74782,Be2GeW,0.14331,0.0,na,0.3558,,,,,
JVASP-94727,CaMg6C,0.25182,0.0,na,0.3136,,,,,
JVASP-74924,BeVIr,-0.11909,0.0,na,0.3808,,,,,
JVASP-74420,Be2CdFe,0.35529,0.0,0.0,0.5595,,,,,
JVASP-94997,MnGa2Se4,-0.52954,0.721,na,0.0012,,,,,
JVASP-74824,BeCrSi,0.31084,0.0,0.0,0.5194,,,,,
JVASP-96088,BaHfP2O8,-3.01183,5.098,6.734,0.0,,,,,
JVASP-105706,K2Pd,0.04937,0.0,na,0.0551,,,,,
JVASP-92869,BaMg6Cr,0.24397,0.0,na,0.3225,,,,,
JVASP-94294,FeSb2,-0.01717,0.0,na,0.0,,,,,
JVASP-93382,VFeSb,0.33246,0.0,na,0.5491,,,,,
JVASP-94163,Mg6CrCu,0.16945,0.0,na,0.2197,,,,,
JVASP-71865,Be2HgW,0.37422,0.0,na,0.5867,,,,,
JVASP-94112,Mg6NiBi,-0.02563,0.0,na,0.1482,,,,,
JVASP-95239,ZrH6NOF5,-2.01657,5.915,na,0.0,,,,,
JVASP-74686,Be2FeCo,-0.15939,0.0,0.0,0.1,,,,,
JVASP-2008,HoHSe,-1.52055,1.698,2.629,0.0,,,,,
JVASP-91433,AsIF12,-1.65059,0.876,na,0.0,,,,,
JVASP-105658,Rb2ScAgCl6,-1.85967,3.067,na,0.0,,,,,
JVASP-93207,LiMg6C,0.19968,0.0,na,0.2334,,,,,
JVASP-74646,KBeGa2,0.45942,0.0,na,0.6205,,,,,
JVASP-18410,PuH2,-0.50043,0.0,0.0,0.0,,,,,
JVASP-95380,Tb3KF12,-3.55923,0.0,na,0.1053,,,,,
JVASP-108104,Mg3HgAu2,-0.50143,0.0,na,0.0055,,,,,
JVASP-92567,InCo3N,-0.08609,0.0,na,0.0,,,,,
JVASP-99276,SiO2,-2.5899,3.993,na,0.3114,,,,,
JVASP-74601,Be2GaTc,-0.23344,0.33,0.334,0.0,,,,,
JVASP-74505,BePdPb2,0.32069,0.0,0.0,0.6008,,,,,
JVASP-93508,HoNi5,-0.37378,0.0,na,0.0001,,,,,
JVASP-98972,SrSi2,-0.39677,0.0,na,0.0021,,,,,
JVASP-105989,Ta2ZnS4,-0.92914,0.0,na,0.0836,,,,,
JVASP-91217,CeGe3Rh,-0.66213,0.0,na,0.0,,,,,
JVASP-71643,TaBeP2,0.05428,0.0,0.0,0.6227,,,,,
JVASP-72018,TaBe2Cl,0.29058,0.0,na,0.9972,,,,,
JVASP-92758,LaCuO3,-2.22349,0.0,na,0.042,,,,,
JVASP-107997,YbNdMg2,-0.10633,0.0,na,0.0,,,,,
JVASP-96528,Mg2B2O5,-2.85303,5.586,na,0.0019,,,,,
JVASP-74205,Be2BiRu,0.51221,0.0,0.0,0.782,,,,,
JVASP-74873,KBeCd2,0.44463,0.0,na,0.4975,,,,,
JVASP-106149,ScBN2,-1.5354,1.811,2.63,0.2364,,,,,
JVASP-93880,NdCdNi4,-0.32679,0.0,na,0.0,,,,,
JVASP-28707,Mo3WSe4S4,-0.75192,0.688,na,0.0885,,,,,
JVASP-92338,CaCuO3,-1.51309,0.0,na,0.2092,,,,,
JVASP-74926,La2BeOs,0.06888,0.0,na,0.2661,,,,,
JVASP-93339,UCoGe,-0.34349,0.0,na,0.0,,,,,
JVASP-92662,LaSi3Ru,-0.65692,0.0,na,0.0,,,,,
JVASP-20095,ErP,-1.71073,0.0,0.0,0.0,,,,,
JVASP-93677,Li4NO,-1.12704,0.0,na,0.1926,,,,,
JVASP-19905,Hg4Pt,0.15092,0.0,na,0.1509,,,,,
JVASP-74973,BeGe2Se,0.53955,0.0,0.0,1.0047,,,,,
JVASP-95381,LuCl3O12,-0.44117,6.169,na,0.1858,,,,,
JVASP-94925,Cr2CoSe4,-0.40328,0.0,na,0.0551,,,,,
JVASP-71966,LiBeCd,0.29905,0.0,na,0.4844,,,,,
JVASP-94831,SrB6,-0.49796,0.016,na,0.0,,,,,
JVASP-92289,YbMn2Si2,-0.43505,0.0,na,0.0,,,,,
JVASP-93740,Ga2Ru,-0.34432,0.122,na,0.0,,,,,
JVASP-50719,Li2CuF4,-2.41608,0.744,na,0.1087,,,,,
JVASP-92914,Mg6CdW,0.16771,0.0,na,0.2776,,,,,
JVASP-18892,Cr2HO4,-1.79024,0.0,na,0.0955,,,,,
JVASP-92476,SrMg2As2,-1.06065,1.463,na,0.0,,,,,
JVASP-74464,MgBeBr2,0.04903,0.0,0.0,1.2457,,,,,
JVASP-43192,Li2Co3WO8,-1.74762,0.013,na,0.0408,,,,,
JVASP-18421,CuO,-0.07367,0.0,na,0.6583,,,,,
JVASP-93078,NaMg6Nb,0.15372,0.0,na,0.1552,,,,,
JVASP-93929,KAu5,-0.24787,0.0,na,0.0,,,,,
JVASP-94879,MnGa2Se4,-0.52115,0.215,na,0.0096,,,,,
JVASP-71700,BeFeCu2,0.13625,0.0,na,0.2376,,,,,
JVASP-74688,Be2ReOs,0.01368,0.0,0.0,0.2825,,,,,
JVASP-93157,LiMg6Cd,-0.06644,0.0,na,0.0158,,,,,
JVASP-43823,LiVFeP2O8F2,-2.31022,0.158,na,0.0286,,,,,
JVASP-74874,MnBe2Cd,0.25974,0.0,na,0.4386,,,,,
JVASP-92704,CdN2Cl2,1.44368,0.776,na,2.119,,,,,
JVASP-95057,Fe2Ni,0.16786,0.0,na,0.2094,,,,,
JVASP-74506,Be2GaPd,-0.16696,0.0,na,0.2096,,,,,
JVASP-93780,YSi,-0.13131,0.0,na,0.7201,,,,,
JVASP-95007,Cr2HO4,-1.79023,0.0,na,0.0956,,,,,